V -t * -v 1.0a5 -a 0
A -t * -n 1 -p 0 -o 0xffffffff -c 31 -a 1
A -t * -h 1 -m 2147483647 -s 0
c -t * -i 1 -n red
c -t * -i 2 -n blue
n -t * -a 4 -s 4 -S UP -v circle -c blue -i blue
n -t * -a 0 -s 0 -S UP -v circle -c blue -i blue
n -t * -a 5 -s 5 -S UP -v box -c red -i red
n -t * -a 1 -s 1 -S UP -v box -c red -i red
n -t * -a 6 -s 6 -S UP -v circle -c black -i black
n -t * -a 2 -s 2 -S UP -v circle -c black -i black
n -t * -a 3 -s 3 -S UP -v circle -c black -i black
l -t * -s 0 -d 2 -S UP -r 1000000 -D 0.01 -c black -o right-down
l -t * -s 1 -d 2 -S UP -r 1000000 -D 0.01 -c black -o right-up
l -t * -s 2 -d 3 -S UP -r 300000 -D 0.10000000000000001 -c black -o right
X -t * -n 7 -r 0.5Mb -D 40ms -o left
L -t * -s 7 -d 3 -o up
L -t * -s 7 -d 4 -o down
L -t * -s 7 -d 5 -o up
L -t * -s 7 -d 6 -o down
n -t 0 -s 0 -S DLABEL -l "TCP_Traffic" -L ""
n -t 0 -s 1 -S DLABEL -l "UDP_Traffic" -L ""
+ -t 0.3 -s 1 -d 2 -p cbr -e 210 -c 2 -i 0 -a 2 -x {1.0 6.0 0 ------- null}
- -t 0.3 -s 1 -d 2 -p cbr -e 210 -c 2 -i 0 -a 2 -x {1.0 6.0 0 ------- null}
h -t 0.3 -s 1 -d 2 -p cbr -e 210 -c 2 -i 0 -a 2 -x {1.0 6.0 -1 ------- null}
r -t 0.31168 -s 1 -d 2 -p cbr -e 210 -c 2 -i 0 -a 2 -x {1.0 6.0 0 ------- null}
+ -t 0.31168 -s 2 -d 3 -p cbr -e 210 -c 2 -i 0 -a 2 -x {1.0 6.0 0 ------- null}
- -t 0.31168 -s 2 -d 3 -p cbr -e 210 -c 2 -i 0 -a 2 -x {1.0 6.0 0 ------- null}
h -t 0.31168 -s 2 -d 3 -p cbr -e 210 -c 2 -i 0 -a 2 -x {1.0 6.0 -1 ------- null}
+ -t 0.3336 -s 1 -d 2 -p cbr -e 210 -c 2 -i 1 -a 2 -x {1.0 6.0 1 ------- null}
- -t 0.3336 -s 1 -d 2 -p cbr -e 210 -c 2 -i 1 -a 2 -x {1.0 6.0 1 ------- null}
h -t 0.3336 -s 1 -d 2 -p cbr -e 210 -c 2 -i 1 -a 2 -x {1.0 6.0 -1 ------- null}
r -t 0.34528 -s 1 -d 2 -p cbr -e 210 -c 2 -i 1 -a 2 -x {1.0 6.0 1 ------- null}
+ -t 0.34528 -s 2 -d 3 -p cbr -e 210 -c 2 -i 1 -a 2 -x {1.0 6.0 1 ------- null}
- -t 0.34528 -s 2 -d 3 -p cbr -e 210 -c 2 -i 1 -a 2 -x {1.0 6.0 1 ------- null}
h -t 0.34528 -s 2 -d 3 -p cbr -e 210 -c 2 -i 1 -a 2 -x {1.0 6.0 -1 ------- null}
+ -t 0.3672 -s 1 -d 2 -p cbr -e 210 -c 2 -i 2 -a 2 -x {1.0 6.0 2 ------- null}
- -t 0.3672 -s 1 -d 2 -p cbr -e 210 -c 2 -i 2 -a 2 -x {1.0 6.0 2 ------- null}
h -t 0.3672 -s 1 -d 2 -p cbr -e 210 -c 2 -i 2 -a 2 -x {1.0 6.0 -1 ------- null}
r -t 0.37888 -s 1 -d 2 -p cbr -e 210 -c 2 -i 2 -a 2 -x {1.0 6.0 2 ------- null}
+ -t 0.37888 -s 2 -d 3 -p cbr -e 210 -c 2 -i 2 -a 2 -x {1.0 6.0 2 ------- null}
- -t 0.37888 -s 2 -d 3 -p cbr -e 210 -c 2 -i 2 -a 2 -x {1.0 6.0 2 ------- null}
h -t 0.37888 -s 2 -d 3 -p cbr -e 210 -c 2 -i 2 -a 2 -x {1.0 6.0 -1 ------- null}
+ -t 0.4008 -s 1 -d 2 -p cbr -e 210 -c 2 -i 3 -a 2 -x {1.0 6.0 3 ------- null}
- -t 0.4008 -s 1 -d 2 -p cbr -e 210 -c 2 -i 3 -a 2 -x {1.0 6.0 3 ------- null}
h -t 0.4008 -s 1 -d 2 -p cbr -e 210 -c 2 -i 3 -a 2 -x {1.0 6.0 -1 ------- null}
r -t 0.41248 -s 1 -d 2 -p cbr -e 210 -c 2 -i 3 -a 2 -x {1.0 6.0 3 ------- null}
+ -t 0.41248 -s 2 -d 3 -p cbr -e 210 -c 2 -i 3 -a 2 -x {1.0 6.0 3 ------- null}
- -t 0.41248 -s 2 -d 3 -p cbr -e 210 -c 2 -i 3 -a 2 -x {1.0 6.0 3 ------- null}
h -t 0.41248 -s 2 -d 3 -p cbr -e 210 -c 2 -i 3 -a 2 -x {1.0 6.0 -1 ------- null}
r -t 0.41728 -s 2 -d 3 -p cbr -e 210 -c 2 -i 0 -a 2 -x {1.0 6.0 0 ------- null}
h -t 0.41728 -s 3 -d 7 -p cbr -e 210 -c 2 -i 0 -a 2 -x {1.0 6.0 0 ------- null}
+ -t 0.4344 -s 1 -d 2 -p cbr -e 210 -c 2 -i 4 -a 2 -x {1.0 6.0 4 ------- null}
- -t 0.4344 -s 1 -d 2 -p cbr -e 210 -c 2 -i 4 -a 2 -x {1.0 6.0 4 ------- null}
h -t 0.4344 -s 1 -d 2 -p cbr -e 210 -c 2 -i 4 -a 2 -x {1.0 6.0 -1 ------- null}
r -t 0.44608 -s 1 -d 2 -p cbr -e 210 -c 2 -i 4 -a 2 -x {1.0 6.0 4 ------- null}
+ -t 0.44608 -s 2 -d 3 -p cbr -e 210 -c 2 -i 4 -a 2 -x {1.0 6.0 4 ------- null}
- -t 0.44608 -s 2 -d 3 -p cbr -e 210 -c 2 -i 4 -a 2 -x {1.0 6.0 4 ------- null}
h -t 0.44608 -s 2 -d 3 -p cbr -e 210 -c 2 -i 4 -a 2 -x {1.0 6.0 -1 ------- null}
r -t 0.45088 -s 2 -d 3 -p cbr -e 210 -c 2 -i 1 -a 2 -x {1.0 6.0 1 ------- null}
h -t 0.45088 -s 3 -d 7 -p cbr -e 210 -c 2 -i 1 -a 2 -x {1.0 6.0 1 ------- null}
+ -t 0.45728 -s 3 -d 7 -p cbr -e 210 -c 2 -i 0 -a 2 -x {1.0 6.0 0 ------- null}
- -t 0.45728 -s 3 -d 7 -p cbr -e 210 -c 2 -i 0 -a 2 -x {1.0 6.0 0 ------- null}
h -t 0.45728 -s 3 -d 7 -p cbr -e 210 -c 2 -i 0 -a 2 -x {1.0 6.0 -1 ------- null}
d -t 0.457284 -s 5 -d 7 -p cbr -e 210 -c 2 -i 0 -a 2 -x {1.0 6.0 0 ------- null}
d -t 0.457284 -s 4 -d 7 -p cbr -e 210 -c 2 -i 0 -a 2 -x {1.0 6.0 0 ------- null}
+ -t 0.468 -s 1 -d 2 -p cbr -e 210 -c 2 -i 5 -a 2 -x {1.0 6.0 5 ------- null}
- -t 0.468 -s 1 -d 2 -p cbr -e 210 -c 2 -i 5 -a 2 -x {1.0 6.0 5 ------- null}
h -t 0.468 -s 1 -d 2 -p cbr -e 210 -c 2 -i 5 -a 2 -x {1.0 6.0 -1 ------- null}
r -t 0.47968 -s 1 -d 2 -p cbr -e 210 -c 2 -i 5 -a 2 -x {1.0 6.0 5 ------- null}
+ -t 0.47968 -s 2 -d 3 -p cbr -e 210 -c 2 -i 5 -a 2 -x {1.0 6.0 5 ------- null}
- -t 0.47968 -s 2 -d 3 -p cbr -e 210 -c 2 -i 5 -a 2 -x {1.0 6.0 5 ------- null}
h -t 0.47968 -s 2 -d 3 -p cbr -e 210 -c 2 -i 5 -a 2 -x {1.0 6.0 -1 ------- null}
r -t 0.48448 -s 2 -d 3 -p cbr -e 210 -c 2 -i 2 -a 2 -x {1.0 6.0 2 ------- null}
h -t 0.48448 -s 3 -d 7 -p cbr -e 210 -c 2 -i 2 -a 2 -x {1.0 6.0 2 ------- null}
+ -t 0.49088 -s 3 -d 7 -p cbr -e 210 -c 2 -i 1 -a 2 -x {1.0 6.0 1 ------- null}
- -t 0.49088 -s 3 -d 7 -p cbr -e 210 -c 2 -i 1 -a 2 -x {1.0 6.0 1 ------- null}
h -t 0.49088 -s 3 -d 7 -p cbr -e 210 -c 2 -i 1 -a 2 -x {1.0 6.0 -1 ------- null}
d -t 0.490884 -s 5 -d 7 -p cbr -e 210 -c 2 -i 1 -a 2 -x {1.0 6.0 1 ------- null}
d -t 0.490884 -s 4 -d 7 -p cbr -e 210 -c 2 -i 1 -a 2 -x {1.0 6.0 1 ------- null}
r -t 0.497284 -s 7 -d 6 -p cbr -e 210 -c 2 -i 0 -a 2 -x {1.0 6.0 0 ------- null}
+ -t 0.5016 -s 1 -d 2 -p cbr -e 210 -c 2 -i 6 -a 2 -x {1.0 6.0 6 ------- null}
- -t 0.5016 -s 1 -d 2 -p cbr -e 210 -c 2 -i 6 -a 2 -x {1.0 6.0 6 ------- null}
h -t 0.5016 -s 1 -d 2 -p cbr -e 210 -c 2 -i 6 -a 2 -x {1.0 6.0 -1 ------- null}
r -t 0.51328 -s 1 -d 2 -p cbr -e 210 -c 2 -i 6 -a 2 -x {1.0 6.0 6 ------- null}
+ -t 0.51328 -s 2 -d 3 -p cbr -e 210 -c 2 -i 6 -a 2 -x {1.0 6.0 6 ------- null}
- -t 0.51328 -s 2 -d 3 -p cbr -e 210 -c 2 -i 6 -a 2 -x {1.0 6.0 6 ------- null}
h -t 0.51328 -s 2 -d 3 -p cbr -e 210 -c 2 -i 6 -a 2 -x {1.0 6.0 -1 ------- null}
r -t 0.51808 -s 2 -d 3 -p cbr -e 210 -c 2 -i 3 -a 2 -x {1.0 6.0 3 ------- null}
h -t 0.51808 -s 3 -d 7 -p cbr -e 210 -c 2 -i 3 -a 2 -x {1.0 6.0 3 ------- null}
+ -t 0.52448 -s 3 -d 7 -p cbr -e 210 -c 2 -i 2 -a 2 -x {1.0 6.0 2 ------- null}
- -t 0.52448 -s 3 -d 7 -p cbr -e 210 -c 2 -i 2 -a 2 -x {1.0 6.0 2 ------- null}
h -t 0.52448 -s 3 -d 7 -p cbr -e 210 -c 2 -i 2 -a 2 -x {1.0 6.0 -1 ------- null}
d -t 0.524484 -s 5 -d 7 -p cbr -e 210 -c 2 -i 2 -a 2 -x {1.0 6.0 2 ------- null}
d -t 0.524484 -s 4 -d 7 -p cbr -e 210 -c 2 -i 2 -a 2 -x {1.0 6.0 2 ------- null}
r -t 0.530884 -s 7 -d 6 -p cbr -e 210 -c 2 -i 1 -a 2 -x {1.0 6.0 1 ------- null}
+ -t 0.5352 -s 1 -d 2 -p cbr -e 210 -c 2 -i 7 -a 2 -x {1.0 6.0 7 ------- null}
- -t 0.5352 -s 1 -d 2 -p cbr -e 210 -c 2 -i 7 -a 2 -x {1.0 6.0 7 ------- null}
h -t 0.5352 -s 1 -d 2 -p cbr -e 210 -c 2 -i 7 -a 2 -x {1.0 6.0 -1 ------- null}
r -t 0.54688 -s 1 -d 2 -p cbr -e 210 -c 2 -i 7 -a 2 -x {1.0 6.0 7 ------- null}
+ -t 0.54688 -s 2 -d 3 -p cbr -e 210 -c 2 -i 7 -a 2 -x {1.0 6.0 7 ------- null}
- -t 0.54688 -s 2 -d 3 -p cbr -e 210 -c 2 -i 7 -a 2 -x {1.0 6.0 7 ------- null}
h -t 0.54688 -s 2 -d 3 -p cbr -e 210 -c 2 -i 7 -a 2 -x {1.0 6.0 -1 ------- null}
r -t 0.55168 -s 2 -d 3 -p cbr -e 210 -c 2 -i 4 -a 2 -x {1.0 6.0 4 ------- null}
h -t 0.55168 -s 3 -d 7 -p cbr -e 210 -c 2 -i 4 -a 2 -x {1.0 6.0 4 ------- null}
+ -t 0.55808 -s 3 -d 7 -p cbr -e 210 -c 2 -i 3 -a 2 -x {1.0 6.0 3 ------- null}
- -t 0.55808 -s 3 -d 7 -p cbr -e 210 -c 2 -i 3 -a 2 -x {1.0 6.0 3 ------- null}
h -t 0.55808 -s 3 -d 7 -p cbr -e 210 -c 2 -i 3 -a 2 -x {1.0 6.0 -1 ------- null}
d -t 0.558084 -s 5 -d 7 -p cbr -e 210 -c 2 -i 3 -a 2 -x {1.0 6.0 3 ------- null}
d -t 0.558084 -s 4 -d 7 -p cbr -e 210 -c 2 -i 3 -a 2 -x {1.0 6.0 3 ------- null}
r -t 0.564484 -s 7 -d 6 -p cbr -e 210 -c 2 -i 2 -a 2 -x {1.0 6.0 2 ------- null}
+ -t 0.5688 -s 1 -d 2 -p cbr -e 210 -c 2 -i 8 -a 2 -x {1.0 6.0 8 ------- null}
- -t 0.5688 -s 1 -d 2 -p cbr -e 210 -c 2 -i 8 -a 2 -x {1.0 6.0 8 ------- null}
h -t 0.5688 -s 1 -d 2 -p cbr -e 210 -c 2 -i 8 -a 2 -x {1.0 6.0 -1 ------- null}
r -t 0.58048 -s 1 -d 2 -p cbr -e 210 -c 2 -i 8 -a 2 -x {1.0 6.0 8 ------- null}
+ -t 0.58048 -s 2 -d 3 -p cbr -e 210 -c 2 -i 8 -a 2 -x {1.0 6.0 8 ------- null}
- -t 0.58048 -s 2 -d 3 -p cbr -e 210 -c 2 -i 8 -a 2 -x {1.0 6.0 8 ------- null}
h -t 0.58048 -s 2 -d 3 -p cbr -e 210 -c 2 -i 8 -a 2 -x {1.0 6.0 -1 ------- null}
r -t 0.58528 -s 2 -d 3 -p cbr -e 210 -c 2 -i 5 -a 2 -x {1.0 6.0 5 ------- null}
h -t 0.58528 -s 3 -d 7 -p cbr -e 210 -c 2 -i 5 -a 2 -x {1.0 6.0 5 ------- null}
+ -t 0.59168 -s 3 -d 7 -p cbr -e 210 -c 2 -i 4 -a 2 -x {1.0 6.0 4 ------- null}
- -t 0.59168 -s 3 -d 7 -p cbr -e 210 -c 2 -i 4 -a 2 -x {1.0 6.0 4 ------- null}
h -t 0.59168 -s 3 -d 7 -p cbr -e 210 -c 2 -i 4 -a 2 -x {1.0 6.0 -1 ------- null}
d -t 0.591684 -s 5 -d 7 -p cbr -e 210 -c 2 -i 4 -a 2 -x {1.0 6.0 4 ------- null}
d -t 0.591684 -s 4 -d 7 -p cbr -e 210 -c 2 -i 4 -a 2 -x {1.0 6.0 4 ------- null}
r -t 0.598084 -s 7 -d 6 -p cbr -e 210 -c 2 -i 3 -a 2 -x {1.0 6.0 3 ------- null}
+ -t 0.6024 -s 1 -d 2 -p cbr -e 210 -c 2 -i 9 -a 2 -x {1.0 6.0 9 ------- null}
- -t 0.6024 -s 1 -d 2 -p cbr -e 210 -c 2 -i 9 -a 2 -x {1.0 6.0 9 ------- null}
h -t 0.6024 -s 1 -d 2 -p cbr -e 210 -c 2 -i 9 -a 2 -x {1.0 6.0 -1 ------- null}
r -t 0.61408 -s 1 -d 2 -p cbr -e 210 -c 2 -i 9 -a 2 -x {1.0 6.0 9 ------- null}
+ -t 0.61408 -s 2 -d 3 -p cbr -e 210 -c 2 -i 9 -a 2 -x {1.0 6.0 9 ------- null}
- -t 0.61408 -s 2 -d 3 -p cbr -e 210 -c 2 -i 9 -a 2 -x {1.0 6.0 9 ------- null}
h -t 0.61408 -s 2 -d 3 -p cbr -e 210 -c 2 -i 9 -a 2 -x {1.0 6.0 -1 ------- null}
r -t 0.61888 -s 2 -d 3 -p cbr -e 210 -c 2 -i 6 -a 2 -x {1.0 6.0 6 ------- null}
h -t 0.61888 -s 3 -d 7 -p cbr -e 210 -c 2 -i 6 -a 2 -x {1.0 6.0 6 ------- null}
+ -t 0.62528 -s 3 -d 7 -p cbr -e 210 -c 2 -i 5 -a 2 -x {1.0 6.0 5 ------- null}
- -t 0.62528 -s 3 -d 7 -p cbr -e 210 -c 2 -i 5 -a 2 -x {1.0 6.0 5 ------- null}
h -t 0.62528 -s 3 -d 7 -p cbr -e 210 -c 2 -i 5 -a 2 -x {1.0 6.0 -1 ------- null}
d -t 0.625284 -s 5 -d 7 -p cbr -e 210 -c 2 -i 5 -a 2 -x {1.0 6.0 5 ------- null}
d -t 0.625284 -s 4 -d 7 -p cbr -e 210 -c 2 -i 5 -a 2 -x {1.0 6.0 5 ------- null}
r -t 0.631684 -s 7 -d 6 -p cbr -e 210 -c 2 -i 4 -a 2 -x {1.0 6.0 4 ------- null}
+ -t 0.636 -s 1 -d 2 -p cbr -e 210 -c 2 -i 10 -a 2 -x {1.0 6.0 10 ------- null}
- -t 0.636 -s 1 -d 2 -p cbr -e 210 -c 2 -i 10 -a 2 -x {1.0 6.0 10 ------- null}
h -t 0.636 -s 1 -d 2 -p cbr -e 210 -c 2 -i 10 -a 2 -x {1.0 6.0 -1 ------- null}
r -t 0.64768 -s 1 -d 2 -p cbr -e 210 -c 2 -i 10 -a 2 -x {1.0 6.0 10 ------- null}
+ -t 0.64768 -s 2 -d 3 -p cbr -e 210 -c 2 -i 10 -a 2 -x {1.0 6.0 10 ------- null}
- -t 0.64768 -s 2 -d 3 -p cbr -e 210 -c 2 -i 10 -a 2 -x {1.0 6.0 10 ------- null}
h -t 0.64768 -s 2 -d 3 -p cbr -e 210 -c 2 -i 10 -a 2 -x {1.0 6.0 -1 ------- null}
r -t 0.65248 -s 2 -d 3 -p cbr -e 210 -c 2 -i 7 -a 2 -x {1.0 6.0 7 ------- null}
h -t 0.65248 -s 3 -d 7 -p cbr -e 210 -c 2 -i 7 -a 2 -x {1.0 6.0 7 ------- null}
+ -t 0.65888 -s 3 -d 7 -p cbr -e 210 -c 2 -i 6 -a 2 -x {1.0 6.0 6 ------- null}
- -t 0.65888 -s 3 -d 7 -p cbr -e 210 -c 2 -i 6 -a 2 -x {1.0 6.0 6 ------- null}
h -t 0.65888 -s 3 -d 7 -p cbr -e 210 -c 2 -i 6 -a 2 -x {1.0 6.0 -1 ------- null}
d -t 0.658884 -s 5 -d 7 -p cbr -e 210 -c 2 -i 6 -a 2 -x {1.0 6.0 6 ------- null}
d -t 0.658884 -s 4 -d 7 -p cbr -e 210 -c 2 -i 6 -a 2 -x {1.0 6.0 6 ------- null}
r -t 0.665284 -s 7 -d 6 -p cbr -e 210 -c 2 -i 5 -a 2 -x {1.0 6.0 5 ------- null}
+ -t 0.6696 -s 1 -d 2 -p cbr -e 210 -c 2 -i 11 -a 2 -x {1.0 6.0 11 ------- null}
- -t 0.6696 -s 1 -d 2 -p cbr -e 210 -c 2 -i 11 -a 2 -x {1.0 6.0 11 ------- null}
h -t 0.6696 -s 1 -d 2 -p cbr -e 210 -c 2 -i 11 -a 2 -x {1.0 6.0 -1 ------- null}
r -t 0.68128 -s 1 -d 2 -p cbr -e 210 -c 2 -i 11 -a 2 -x {1.0 6.0 11 ------- null}
+ -t 0.68128 -s 2 -d 3 -p cbr -e 210 -c 2 -i 11 -a 2 -x {1.0 6.0 11 ------- null}
- -t 0.68128 -s 2 -d 3 -p cbr -e 210 -c 2 -i 11 -a 2 -x {1.0 6.0 11 ------- null}
h -t 0.68128 -s 2 -d 3 -p cbr -e 210 -c 2 -i 11 -a 2 -x {1.0 6.0 -1 ------- null}
r -t 0.68608 -s 2 -d 3 -p cbr -e 210 -c 2 -i 8 -a 2 -x {1.0 6.0 8 ------- null}
h -t 0.68608 -s 3 -d 7 -p cbr -e 210 -c 2 -i 8 -a 2 -x {1.0 6.0 8 ------- null}
+ -t 0.69248 -s 3 -d 7 -p cbr -e 210 -c 2 -i 7 -a 2 -x {1.0 6.0 7 ------- null}
- -t 0.69248 -s 3 -d 7 -p cbr -e 210 -c 2 -i 7 -a 2 -x {1.0 6.0 7 ------- null}
h -t 0.69248 -s 3 -d 7 -p cbr -e 210 -c 2 -i 7 -a 2 -x {1.0 6.0 -1 ------- null}
d -t 0.692484 -s 5 -d 7 -p cbr -e 210 -c 2 -i 7 -a 2 -x {1.0 6.0 7 ------- null}
d -t 0.692484 -s 4 -d 7 -p cbr -e 210 -c 2 -i 7 -a 2 -x {1.0 6.0 7 ------- null}
r -t 0.698884 -s 7 -d 6 -p cbr -e 210 -c 2 -i 6 -a 2 -x {1.0 6.0 6 ------- null}
+ -t 0.7032 -s 1 -d 2 -p cbr -e 210 -c 2 -i 12 -a 2 -x {1.0 6.0 12 ------- null}
- -t 0.7032 -s 1 -d 2 -p cbr -e 210 -c 2 -i 12 -a 2 -x {1.0 6.0 12 ------- null}
h -t 0.7032 -s 1 -d 2 -p cbr -e 210 -c 2 -i 12 -a 2 -x {1.0 6.0 -1 ------- null}
r -t 0.71488 -s 1 -d 2 -p cbr -e 210 -c 2 -i 12 -a 2 -x {1.0 6.0 12 ------- null}
+ -t 0.71488 -s 2 -d 3 -p cbr -e 210 -c 2 -i 12 -a 2 -x {1.0 6.0 12 ------- null}
- -t 0.71488 -s 2 -d 3 -p cbr -e 210 -c 2 -i 12 -a 2 -x {1.0 6.0 12 ------- null}
h -t 0.71488 -s 2 -d 3 -p cbr -e 210 -c 2 -i 12 -a 2 -x {1.0 6.0 -1 ------- null}
r -t 0.71968 -s 2 -d 3 -p cbr -e 210 -c 2 -i 9 -a 2 -x {1.0 6.0 9 ------- null}
h -t 0.71968 -s 3 -d 7 -p cbr -e 210 -c 2 -i 9 -a 2 -x {1.0 6.0 9 ------- null}
+ -t 0.72608 -s 3 -d 7 -p cbr -e 210 -c 2 -i 8 -a 2 -x {1.0 6.0 8 ------- null}
- -t 0.72608 -s 3 -d 7 -p cbr -e 210 -c 2 -i 8 -a 2 -x {1.0 6.0 8 ------- null}
h -t 0.72608 -s 3 -d 7 -p cbr -e 210 -c 2 -i 8 -a 2 -x {1.0 6.0 -1 ------- null}
d -t 0.726084 -s 5 -d 7 -p cbr -e 210 -c 2 -i 8 -a 2 -x {1.0 6.0 8 ------- null}
d -t 0.726084 -s 4 -d 7 -p cbr -e 210 -c 2 -i 8 -a 2 -x {1.0 6.0 8 ------- null}
r -t 0.732484 -s 7 -d 6 -p cbr -e 210 -c 2 -i 7 -a 2 -x {1.0 6.0 7 ------- null}
+ -t 0.7368 -s 1 -d 2 -p cbr -e 210 -c 2 -i 13 -a 2 -x {1.0 6.0 13 ------- null}
- -t 0.7368 -s 1 -d 2 -p cbr -e 210 -c 2 -i 13 -a 2 -x {1.0 6.0 13 ------- null}
h -t 0.7368 -s 1 -d 2 -p cbr -e 210 -c 2 -i 13 -a 2 -x {1.0 6.0 -1 ------- null}
r -t 0.74848 -s 1 -d 2 -p cbr -e 210 -c 2 -i 13 -a 2 -x {1.0 6.0 13 ------- null}
+ -t 0.74848 -s 2 -d 3 -p cbr -e 210 -c 2 -i 13 -a 2 -x {1.0 6.0 13 ------- null}
- -t 0.74848 -s 2 -d 3 -p cbr -e 210 -c 2 -i 13 -a 2 -x {1.0 6.0 13 ------- null}
h -t 0.74848 -s 2 -d 3 -p cbr -e 210 -c 2 -i 13 -a 2 -x {1.0 6.0 -1 ------- null}
r -t 0.75328 -s 2 -d 3 -p cbr -e 210 -c 2 -i 10 -a 2 -x {1.0 6.0 10 ------- null}
h -t 0.75328 -s 3 -d 7 -p cbr -e 210 -c 2 -i 10 -a 2 -x {1.0 6.0 10 ------- null}
+ -t 0.75968 -s 3 -d 7 -p cbr -e 210 -c 2 -i 9 -a 2 -x {1.0 6.0 9 ------- null}
- -t 0.75968 -s 3 -d 7 -p cbr -e 210 -c 2 -i 9 -a 2 -x {1.0 6.0 9 ------- null}
h -t 0.75968 -s 3 -d 7 -p cbr -e 210 -c 2 -i 9 -a 2 -x {1.0 6.0 -1 ------- null}
d -t 0.759684 -s 5 -d 7 -p cbr -e 210 -c 2 -i 9 -a 2 -x {1.0 6.0 9 ------- null}
d -t 0.759684 -s 4 -d 7 -p cbr -e 210 -c 2 -i 9 -a 2 -x {1.0 6.0 9 ------- null}
r -t 0.766084 -s 7 -d 6 -p cbr -e 210 -c 2 -i 8 -a 2 -x {1.0 6.0 8 ------- null}
+ -t 0.7704 -s 1 -d 2 -p cbr -e 210 -c 2 -i 14 -a 2 -x {1.0 6.0 14 ------- null}
- -t 0.7704 -s 1 -d 2 -p cbr -e 210 -c 2 -i 14 -a 2 -x {1.0 6.0 14 ------- null}
h -t 0.7704 -s 1 -d 2 -p cbr -e 210 -c 2 -i 14 -a 2 -x {1.0 6.0 -1 ------- null}
r -t 0.78208 -s 1 -d 2 -p cbr -e 210 -c 2 -i 14 -a 2 -x {1.0 6.0 14 ------- null}
+ -t 0.78208 -s 2 -d 3 -p cbr -e 210 -c 2 -i 14 -a 2 -x {1.0 6.0 14 ------- null}
- -t 0.78208 -s 2 -d 3 -p cbr -e 210 -c 2 -i 14 -a 2 -x {1.0 6.0 14 ------- null}
h -t 0.78208 -s 2 -d 3 -p cbr -e 210 -c 2 -i 14 -a 2 -x {1.0 6.0 -1 ------- null}
r -t 0.78688 -s 2 -d 3 -p cbr -e 210 -c 2 -i 11 -a 2 -x {1.0 6.0 11 ------- null}
h -t 0.78688 -s 3 -d 7 -p cbr -e 210 -c 2 -i 11 -a 2 -x {1.0 6.0 11 ------- null}
+ -t 0.79328 -s 3 -d 7 -p cbr -e 210 -c 2 -i 10 -a 2 -x {1.0 6.0 10 ------- null}
- -t 0.79328 -s 3 -d 7 -p cbr -e 210 -c 2 -i 10 -a 2 -x {1.0 6.0 10 ------- null}
h -t 0.79328 -s 3 -d 7 -p cbr -e 210 -c 2 -i 10 -a 2 -x {1.0 6.0 -1 ------- null}
d -t 0.793284 -s 5 -d 7 -p cbr -e 210 -c 2 -i 10 -a 2 -x {1.0 6.0 10 ------- null}
d -t 0.793284 -s 4 -d 7 -p cbr -e 210 -c 2 -i 10 -a 2 -x {1.0 6.0 10 ------- null}
r -t 0.799684 -s 7 -d 6 -p cbr -e 210 -c 2 -i 9 -a 2 -x {1.0 6.0 9 ------- null}
+ -t 0.8 -s 0 -d 2 -p tcp -e 40 -c 1 -i 15 -a 1 -x {0.0 4.0 0 ------- null}
- -t 0.8 -s 0 -d 2 -p tcp -e 40 -c 1 -i 15 -a 1 -x {0.0 4.0 0 ------- null}
h -t 0.8 -s 0 -d 2 -p tcp -e 40 -c 1 -i 15 -a 1 -x {0.0 4.0 -1 ------- null}
+ -t 0.804 -s 1 -d 2 -p cbr -e 210 -c 2 -i 16 -a 2 -x {1.0 6.0 15 ------- null}
- -t 0.804 -s 1 -d 2 -p cbr -e 210 -c 2 -i 16 -a 2 -x {1.0 6.0 15 ------- null}
h -t 0.804 -s 1 -d 2 -p cbr -e 210 -c 2 -i 16 -a 2 -x {1.0 6.0 -1 ------- null}
r -t 0.81032 -s 0 -d 2 -p tcp -e 40 -c 1 -i 15 -a 1 -x {0.0 4.0 0 ------- null}
+ -t 0.81032 -s 2 -d 3 -p tcp -e 40 -c 1 -i 15 -a 1 -x {0.0 4.0 0 ------- null}
- -t 0.81032 -s 2 -d 3 -p tcp -e 40 -c 1 -i 15 -a 1 -x {0.0 4.0 0 ------- null}
h -t 0.81032 -s 2 -d 3 -p tcp -e 40 -c 1 -i 15 -a 1 -x {0.0 4.0 -1 ------- null}
r -t 0.81568 -s 1 -d 2 -p cbr -e 210 -c 2 -i 16 -a 2 -x {1.0 6.0 15 ------- null}
+ -t 0.81568 -s 2 -d 3 -p cbr -e 210 -c 2 -i 16 -a 2 -x {1.0 6.0 15 ------- null}
- -t 0.81568 -s 2 -d 3 -p cbr -e 210 -c 2 -i 16 -a 2 -x {1.0 6.0 15 ------- null}
h -t 0.81568 -s 2 -d 3 -p cbr -e 210 -c 2 -i 16 -a 2 -x {1.0 6.0 -1 ------- null}
r -t 0.82048 -s 2 -d 3 -p cbr -e 210 -c 2 -i 12 -a 2 -x {1.0 6.0 12 ------- null}
h -t 0.82048 -s 3 -d 7 -p cbr -e 210 -c 2 -i 12 -a 2 -x {1.0 6.0 12 ------- null}
+ -t 0.82688 -s 3 -d 7 -p cbr -e 210 -c 2 -i 11 -a 2 -x {1.0 6.0 11 ------- null}
- -t 0.82688 -s 3 -d 7 -p cbr -e 210 -c 2 -i 11 -a 2 -x {1.0 6.0 11 ------- null}
h -t 0.82688 -s 3 -d 7 -p cbr -e 210 -c 2 -i 11 -a 2 -x {1.0 6.0 -1 ------- null}
d -t 0.826884 -s 5 -d 7 -p cbr -e 210 -c 2 -i 11 -a 2 -x {1.0 6.0 11 ------- null}
d -t 0.826884 -s 4 -d 7 -p cbr -e 210 -c 2 -i 11 -a 2 -x {1.0 6.0 11 ------- null}
r -t 0.833284 -s 7 -d 6 -p cbr -e 210 -c 2 -i 10 -a 2 -x {1.0 6.0 10 ------- null}
+ -t 0.8376 -s 1 -d 2 -p cbr -e 210 -c 2 -i 17 -a 2 -x {1.0 6.0 16 ------- null}
- -t 0.8376 -s 1 -d 2 -p cbr -e 210 -c 2 -i 17 -a 2 -x {1.0 6.0 16 ------- null}
h -t 0.8376 -s 1 -d 2 -p cbr -e 210 -c 2 -i 17 -a 2 -x {1.0 6.0 -1 ------- null}
r -t 0.84928 -s 1 -d 2 -p cbr -e 210 -c 2 -i 17 -a 2 -x {1.0 6.0 16 ------- null}
+ -t 0.84928 -s 2 -d 3 -p cbr -e 210 -c 2 -i 17 -a 2 -x {1.0 6.0 16 ------- null}
- -t 0.84928 -s 2 -d 3 -p cbr -e 210 -c 2 -i 17 -a 2 -x {1.0 6.0 16 ------- null}
h -t 0.84928 -s 2 -d 3 -p cbr -e 210 -c 2 -i 17 -a 2 -x {1.0 6.0 -1 ------- null}
r -t 0.85408 -s 2 -d 3 -p cbr -e 210 -c 2 -i 13 -a 2 -x {1.0 6.0 13 ------- null}
h -t 0.85408 -s 3 -d 7 -p cbr -e 210 -c 2 -i 13 -a 2 -x {1.0 6.0 13 ------- null}
+ -t 0.86048 -s 3 -d 7 -p cbr -e 210 -c 2 -i 12 -a 2 -x {1.0 6.0 12 ------- null}
- -t 0.86048 -s 3 -d 7 -p cbr -e 210 -c 2 -i 12 -a 2 -x {1.0 6.0 12 ------- null}
h -t 0.86048 -s 3 -d 7 -p cbr -e 210 -c 2 -i 12 -a 2 -x {1.0 6.0 -1 ------- null}
d -t 0.860484 -s 5 -d 7 -p cbr -e 210 -c 2 -i 12 -a 2 -x {1.0 6.0 12 ------- null}
d -t 0.860484 -s 4 -d 7 -p cbr -e 210 -c 2 -i 12 -a 2 -x {1.0 6.0 12 ------- null}
r -t 0.866884 -s 7 -d 6 -p cbr -e 210 -c 2 -i 11 -a 2 -x {1.0 6.0 11 ------- null}
+ -t 0.8712 -s 1 -d 2 -p cbr -e 210 -c 2 -i 18 -a 2 -x {1.0 6.0 17 ------- null}
- -t 0.8712 -s 1 -d 2 -p cbr -e 210 -c 2 -i 18 -a 2 -x {1.0 6.0 17 ------- null}
h -t 0.8712 -s 1 -d 2 -p cbr -e 210 -c 2 -i 18 -a 2 -x {1.0 6.0 -1 ------- null}
r -t 0.88288 -s 1 -d 2 -p cbr -e 210 -c 2 -i 18 -a 2 -x {1.0 6.0 17 ------- null}
+ -t 0.88288 -s 2 -d 3 -p cbr -e 210 -c 2 -i 18 -a 2 -x {1.0 6.0 17 ------- null}
- -t 0.88288 -s 2 -d 3 -p cbr -e 210 -c 2 -i 18 -a 2 -x {1.0 6.0 17 ------- null}
h -t 0.88288 -s 2 -d 3 -p cbr -e 210 -c 2 -i 18 -a 2 -x {1.0 6.0 -1 ------- null}
r -t 0.88768 -s 2 -d 3 -p cbr -e 210 -c 2 -i 14 -a 2 -x {1.0 6.0 14 ------- null}
h -t 0.88768 -s 3 -d 7 -p cbr -e 210 -c 2 -i 14 -a 2 -x {1.0 6.0 14 ------- null}
+ -t 0.89408 -s 3 -d 7 -p cbr -e 210 -c 2 -i 13 -a 2 -x {1.0 6.0 13 ------- null}
- -t 0.89408 -s 3 -d 7 -p cbr -e 210 -c 2 -i 13 -a 2 -x {1.0 6.0 13 ------- null}
h -t 0.89408 -s 3 -d 7 -p cbr -e 210 -c 2 -i 13 -a 2 -x {1.0 6.0 -1 ------- null}
d -t 0.894084 -s 5 -d 7 -p cbr -e 210 -c 2 -i 13 -a 2 -x {1.0 6.0 13 ------- null}
d -t 0.894084 -s 4 -d 7 -p cbr -e 210 -c 2 -i 13 -a 2 -x {1.0 6.0 13 ------- null}
r -t 0.900484 -s 7 -d 6 -p cbr -e 210 -c 2 -i 12 -a 2 -x {1.0 6.0 12 ------- null}
+ -t 0.9048 -s 1 -d 2 -p cbr -e 210 -c 2 -i 19 -a 2 -x {1.0 6.0 18 ------- null}
- -t 0.9048 -s 1 -d 2 -p cbr -e 210 -c 2 -i 19 -a 2 -x {1.0 6.0 18 ------- null}
h -t 0.9048 -s 1 -d 2 -p cbr -e 210 -c 2 -i 19 -a 2 -x {1.0 6.0 -1 ------- null}
r -t 0.911386666666667 -s 2 -d 3 -p tcp -e 40 -c 1 -i 15 -a 1 -x {0.0 4.0 0 ------- null}
h -t 0.911386666666667 -s 3 -d 7 -p tcp -e 40 -c 1 -i 15 -a 1 -x {0.0 4.0 0 ------- null}
r -t 0.91648 -s 1 -d 2 -p cbr -e 210 -c 2 -i 19 -a 2 -x {1.0 6.0 18 ------- null}
+ -t 0.91648 -s 2 -d 3 -p cbr -e 210 -c 2 -i 19 -a 2 -x {1.0 6.0 18 ------- null}
- -t 0.91648 -s 2 -d 3 -p cbr -e 210 -c 2 -i 19 -a 2 -x {1.0 6.0 18 ------- null}
h -t 0.91648 -s 2 -d 3 -p cbr -e 210 -c 2 -i 19 -a 2 -x {1.0 6.0 -1 ------- null}
r -t 0.92128 -s 2 -d 3 -p cbr -e 210 -c 2 -i 16 -a 2 -x {1.0 6.0 15 ------- null}
h -t 0.92128 -s 3 -d 7 -p cbr -e 210 -c 2 -i 16 -a 2 -x {1.0 6.0 15 ------- null}
+ -t 0.92768 -s 3 -d 7 -p cbr -e 210 -c 2 -i 14 -a 2 -x {1.0 6.0 14 ------- null}
- -t 0.92768 -s 3 -d 7 -p cbr -e 210 -c 2 -i 14 -a 2 -x {1.0 6.0 14 ------- null}
h -t 0.92768 -s 3 -d 7 -p cbr -e 210 -c 2 -i 14 -a 2 -x {1.0 6.0 -1 ------- null}
d -t 0.927684 -s 5 -d 7 -p cbr -e 210 -c 2 -i 14 -a 2 -x {1.0 6.0 14 ------- null}
d -t 0.927684 -s 4 -d 7 -p cbr -e 210 -c 2 -i 14 -a 2 -x {1.0 6.0 14 ------- null}
r -t 0.934084 -s 7 -d 6 -p cbr -e 210 -c 2 -i 13 -a 2 -x {1.0 6.0 13 ------- null}
+ -t 0.9384 -s 1 -d 2 -p cbr -e 210 -c 2 -i 20 -a 2 -x {1.0 6.0 19 ------- null}
- -t 0.9384 -s 1 -d 2 -p cbr -e 210 -c 2 -i 20 -a 2 -x {1.0 6.0 19 ------- null}
h -t 0.9384 -s 1 -d 2 -p cbr -e 210 -c 2 -i 20 -a 2 -x {1.0 6.0 -1 ------- null}
r -t 0.95008 -s 1 -d 2 -p cbr -e 210 -c 2 -i 20 -a 2 -x {1.0 6.0 19 ------- null}
+ -t 0.95008 -s 2 -d 3 -p cbr -e 210 -c 2 -i 20 -a 2 -x {1.0 6.0 19 ------- null}
- -t 0.95008 -s 2 -d 3 -p cbr -e 210 -c 2 -i 20 -a 2 -x {1.0 6.0 19 ------- null}
h -t 0.95008 -s 2 -d 3 -p cbr -e 210 -c 2 -i 20 -a 2 -x {1.0 6.0 -1 ------- null}
+ -t 0.951386666666667 -s 3 -d 7 -p tcp -e 40 -c 1 -i 15 -a 1 -x {0.0 4.0 0 ------- null}
- -t 0.951386666666667 -s 3 -d 7 -p tcp -e 40 -c 1 -i 15 -a 1 -x {0.0 4.0 0 ------- null}
h -t 0.951386666666667 -s 3 -d 7 -p tcp -e 40 -c 1 -i 15 -a 1 -x {0.0 4.0 -1 ------- null}
d -t 0.951390666666667 -s 6 -d 7 -p tcp -e 40 -c 1 -i 15 -a 1 -x {0.0 4.0 0 ------- null}
d -t 0.951390666666667 -s 5 -d 7 -p tcp -e 40 -c 1 -i 15 -a 1 -x {0.0 4.0 0 ------- null}
r -t 0.95488 -s 2 -d 3 -p cbr -e 210 -c 2 -i 17 -a 2 -x {1.0 6.0 16 ------- null}
h -t 0.95488 -s 3 -d 7 -p cbr -e 210 -c 2 -i 17 -a 2 -x {1.0 6.0 16 ------- null}
+ -t 0.96128 -s 3 -d 7 -p cbr -e 210 -c 2 -i 16 -a 2 -x {1.0 6.0 15 ------- null}
- -t 0.96128 -s 3 -d 7 -p cbr -e 210 -c 2 -i 16 -a 2 -x {1.0 6.0 15 ------- null}
h -t 0.96128 -s 3 -d 7 -p cbr -e 210 -c 2 -i 16 -a 2 -x {1.0 6.0 -1 ------- null}
d -t 0.961284 -s 5 -d 7 -p cbr -e 210 -c 2 -i 16 -a 2 -x {1.0 6.0 15 ------- null}
d -t 0.961284 -s 4 -d 7 -p cbr -e 210 -c 2 -i 16 -a 2 -x {1.0 6.0 15 ------- null}
r -t 0.967684 -s 7 -d 6 -p cbr -e 210 -c 2 -i 14 -a 2 -x {1.0 6.0 14 ------- null}
+ -t 0.972 -s 1 -d 2 -p cbr -e 210 -c 2 -i 21 -a 2 -x {1.0 6.0 20 ------- null}
- -t 0.972 -s 1 -d 2 -p cbr -e 210 -c 2 -i 21 -a 2 -x {1.0 6.0 20 ------- null}
h -t 0.972 -s 1 -d 2 -p cbr -e 210 -c 2 -i 21 -a 2 -x {1.0 6.0 -1 ------- null}
r -t 0.98368 -s 1 -d 2 -p cbr -e 210 -c 2 -i 21 -a 2 -x {1.0 6.0 20 ------- null}
+ -t 0.98368 -s 2 -d 3 -p cbr -e 210 -c 2 -i 21 -a 2 -x {1.0 6.0 20 ------- null}
- -t 0.98368 -s 2 -d 3 -p cbr -e 210 -c 2 -i 21 -a 2 -x {1.0 6.0 20 ------- null}
h -t 0.98368 -s 2 -d 3 -p cbr -e 210 -c 2 -i 21 -a 2 -x {1.0 6.0 -1 ------- null}
r -t 0.98848 -s 2 -d 3 -p cbr -e 210 -c 2 -i 18 -a 2 -x {1.0 6.0 17 ------- null}
h -t 0.98848 -s 3 -d 7 -p cbr -e 210 -c 2 -i 18 -a 2 -x {1.0 6.0 17 ------- null}
r -t 0.991390666666667 -s 7 -d 4 -p tcp -e 40 -c 1 -i 15 -a 1 -x {0.0 4.0 0 ------- null}
+ -t 0.99488 -s 3 -d 7 -p cbr -e 210 -c 2 -i 17 -a 2 -x {1.0 6.0 16 ------- null}
- -t 0.99488 -s 3 -d 7 -p cbr -e 210 -c 2 -i 17 -a 2 -x {1.0 6.0 16 ------- null}
h -t 0.99488 -s 3 -d 7 -p cbr -e 210 -c 2 -i 17 -a 2 -x {1.0 6.0 -1 ------- null}
d -t 0.994884 -s 5 -d 7 -p cbr -e 210 -c 2 -i 17 -a 2 -x {1.0 6.0 16 ------- null}
d -t 0.994884 -s 4 -d 7 -p cbr -e 210 -c 2 -i 17 -a 2 -x {1.0 6.0 16 ------- null}
r -t 1.001284 -s 7 -d 6 -p cbr -e 210 -c 2 -i 16 -a 2 -x {1.0 6.0 15 ------- null}
+ -t 1.0056 -s 1 -d 2 -p cbr -e 210 -c 2 -i 22 -a 2 -x {1.0 6.0 21 ------- null}
- -t 1.0056 -s 1 -d 2 -p cbr -e 210 -c 2 -i 22 -a 2 -x {1.0 6.0 21 ------- null}
h -t 1.0056 -s 1 -d 2 -p cbr -e 210 -c 2 -i 22 -a 2 -x {1.0 6.0 -1 ------- null}
r -t 1.01728 -s 1 -d 2 -p cbr -e 210 -c 2 -i 22 -a 2 -x {1.0 6.0 21 ------- null}
+ -t 1.01728 -s 2 -d 3 -p cbr -e 210 -c 2 -i 22 -a 2 -x {1.0 6.0 21 ------- null}
- -t 1.01728 -s 2 -d 3 -p cbr -e 210 -c 2 -i 22 -a 2 -x {1.0 6.0 21 ------- null}
h -t 1.01728 -s 2 -d 3 -p cbr -e 210 -c 2 -i 22 -a 2 -x {1.0 6.0 -1 ------- null}
r -t 1.02208 -s 2 -d 3 -p cbr -e 210 -c 2 -i 19 -a 2 -x {1.0 6.0 18 ------- null}
h -t 1.02208 -s 3 -d 7 -p cbr -e 210 -c 2 -i 19 -a 2 -x {1.0 6.0 18 ------- null}
+ -t 1.02848 -s 3 -d 7 -p cbr -e 210 -c 2 -i 18 -a 2 -x {1.0 6.0 17 ------- null}
- -t 1.02848 -s 3 -d 7 -p cbr -e 210 -c 2 -i 18 -a 2 -x {1.0 6.0 17 ------- null}
h -t 1.02848 -s 3 -d 7 -p cbr -e 210 -c 2 -i 18 -a 2 -x {1.0 6.0 -1 ------- null}
d -t 1.028484 -s 5 -d 7 -p cbr -e 210 -c 2 -i 18 -a 2 -x {1.0 6.0 17 ------- null}
d -t 1.028484 -s 4 -d 7 -p cbr -e 210 -c 2 -i 18 -a 2 -x {1.0 6.0 17 ------- null}
r -t 1.034884 -s 7 -d 6 -p cbr -e 210 -c 2 -i 17 -a 2 -x {1.0 6.0 16 ------- null}
+ -t 1.0392 -s 1 -d 2 -p cbr -e 210 -c 2 -i 23 -a 2 -x {1.0 6.0 22 ------- null}
- -t 1.0392 -s 1 -d 2 -p cbr -e 210 -c 2 -i 23 -a 2 -x {1.0 6.0 22 ------- null}
h -t 1.0392 -s 1 -d 2 -p cbr -e 210 -c 2 -i 23 -a 2 -x {1.0 6.0 -1 ------- null}
r -t 1.05088 -s 1 -d 2 -p cbr -e 210 -c 2 -i 23 -a 2 -x {1.0 6.0 22 ------- null}
+ -t 1.05088 -s 2 -d 3 -p cbr -e 210 -c 2 -i 23 -a 2 -x {1.0 6.0 22 ------- null}
- -t 1.05088 -s 2 -d 3 -p cbr -e 210 -c 2 -i 23 -a 2 -x {1.0 6.0 22 ------- null}
h -t 1.05088 -s 2 -d 3 -p cbr -e 210 -c 2 -i 23 -a 2 -x {1.0 6.0 -1 ------- null}
r -t 1.05568 -s 2 -d 3 -p cbr -e 210 -c 2 -i 20 -a 2 -x {1.0 6.0 19 ------- null}
h -t 1.05568 -s 3 -d 7 -p cbr -e 210 -c 2 -i 20 -a 2 -x {1.0 6.0 19 ------- null}
+ -t 1.06208 -s 3 -d 7 -p cbr -e 210 -c 2 -i 19 -a 2 -x {1.0 6.0 18 ------- null}
- -t 1.06208 -s 3 -d 7 -p cbr -e 210 -c 2 -i 19 -a 2 -x {1.0 6.0 18 ------- null}
h -t 1.06208 -s 3 -d 7 -p cbr -e 210 -c 2 -i 19 -a 2 -x {1.0 6.0 -1 ------- null}
d -t 1.062084 -s 5 -d 7 -p cbr -e 210 -c 2 -i 19 -a 2 -x {1.0 6.0 18 ------- null}
d -t 1.062084 -s 4 -d 7 -p cbr -e 210 -c 2 -i 19 -a 2 -x {1.0 6.0 18 ------- null}
r -t 1.068484 -s 7 -d 6 -p cbr -e 210 -c 2 -i 18 -a 2 -x {1.0 6.0 17 ------- null}
+ -t 1.0728 -s 1 -d 2 -p cbr -e 210 -c 2 -i 24 -a 2 -x {1.0 6.0 23 ------- null}
- -t 1.0728 -s 1 -d 2 -p cbr -e 210 -c 2 -i 24 -a 2 -x {1.0 6.0 23 ------- null}
h -t 1.0728 -s 1 -d 2 -p cbr -e 210 -c 2 -i 24 -a 2 -x {1.0 6.0 -1 ------- null}
r -t 1.08448 -s 1 -d 2 -p cbr -e 210 -c 2 -i 24 -a 2 -x {1.0 6.0 23 ------- null}
+ -t 1.08448 -s 2 -d 3 -p cbr -e 210 -c 2 -i 24 -a 2 -x {1.0 6.0 23 ------- null}
- -t 1.08448 -s 2 -d 3 -p cbr -e 210 -c 2 -i 24 -a 2 -x {1.0 6.0 23 ------- null}
h -t 1.08448 -s 2 -d 3 -p cbr -e 210 -c 2 -i 24 -a 2 -x {1.0 6.0 -1 ------- null}
r -t 1.08928 -s 2 -d 3 -p cbr -e 210 -c 2 -i 21 -a 2 -x {1.0 6.0 20 ------- null}
h -t 1.08928 -s 3 -d 7 -p cbr -e 210 -c 2 -i 21 -a 2 -x {1.0 6.0 20 ------- null}
h -t 1.09139066666667 -s 4 -d 7 -p ack -e 40 -c 1 -i 25 -a 1 -x {4.0 0.0 0 ------- null}
+ -t 1.09568 -s 3 -d 7 -p cbr -e 210 -c 2 -i 20 -a 2 -x {1.0 6.0 19 ------- null}
- -t 1.09568 -s 3 -d 7 -p cbr -e 210 -c 2 -i 20 -a 2 -x {1.0 6.0 19 ------- null}
h -t 1.09568 -s 3 -d 7 -p cbr -e 210 -c 2 -i 20 -a 2 -x {1.0 6.0 -1 ------- null}
d -t 1.095684 -s 5 -d 7 -p cbr -e 210 -c 2 -i 20 -a 2 -x {1.0 6.0 19 ------- null}
d -t 1.095684 -s 4 -d 7 -p cbr -e 210 -c 2 -i 20 -a 2 -x {1.0 6.0 19 ------- null}
r -t 1.102084 -s 7 -d 6 -p cbr -e 210 -c 2 -i 19 -a 2 -x {1.0 6.0 18 ------- null}
+ -t 1.1064 -s 1 -d 2 -p cbr -e 210 -c 2 -i 26 -a 2 -x {1.0 6.0 24 ------- null}
- -t 1.1064 -s 1 -d 2 -p cbr -e 210 -c 2 -i 26 -a 2 -x {1.0 6.0 24 ------- null}
h -t 1.1064 -s 1 -d 2 -p cbr -e 210 -c 2 -i 26 -a 2 -x {1.0 6.0 -1 ------- null}
r -t 1.11808 -s 1 -d 2 -p cbr -e 210 -c 2 -i 26 -a 2 -x {1.0 6.0 24 ------- null}
+ -t 1.11808 -s 2 -d 3 -p cbr -e 210 -c 2 -i 26 -a 2 -x {1.0 6.0 24 ------- null}
- -t 1.11808 -s 2 -d 3 -p cbr -e 210 -c 2 -i 26 -a 2 -x {1.0 6.0 24 ------- null}
h -t 1.11808 -s 2 -d 3 -p cbr -e 210 -c 2 -i 26 -a 2 -x {1.0 6.0 -1 ------- null}
r -t 1.12288 -s 2 -d 3 -p cbr -e 210 -c 2 -i 22 -a 2 -x {1.0 6.0 21 ------- null}
h -t 1.12288 -s 3 -d 7 -p cbr -e 210 -c 2 -i 22 -a 2 -x {1.0 6.0 21 ------- null}
+ -t 1.12928 -s 3 -d 7 -p cbr -e 210 -c 2 -i 21 -a 2 -x {1.0 6.0 20 ------- null}
- -t 1.12928 -s 3 -d 7 -p cbr -e 210 -c 2 -i 21 -a 2 -x {1.0 6.0 20 ------- null}
h -t 1.12928 -s 3 -d 7 -p cbr -e 210 -c 2 -i 21 -a 2 -x {1.0 6.0 -1 ------- null}
d -t 1.129284 -s 5 -d 7 -p cbr -e 210 -c 2 -i 21 -a 2 -x {1.0 6.0 20 ------- null}