V -t * -v 1.0a5 -a 0
A -t * -n 1 -p 0 -o 0xffffffff -c 31 -a 1
A -t * -h 1 -m 2147483647 -s 0
c -t * -i 1 -n red
c -t * -i 2 -n blue
n -t * -a 4 -s 4 -S UP -v circle -c black -i black
n -t * -a 0 -s 0 -S UP -v circle -c red -i red
n -t * -a 5 -s 5 -S UP -v circle -c black -i black
n -t * -a 1 -s 1 -S UP -v circle -c blue -i blue
n -t * -a 6 -s 6 -S UP -v circle -c black -i black
n -t * -a 2 -s 2 -S UP -v circle -c black -i black
n -t * -a 3 -s 3 -S UP -v circle -c black -i black
l -t * -s 0 -d 2 -S UP -r 2000000 -D 0.02 -c black -o right-down
l -t * -s 1 -d 2 -S UP -r 2000000 -D 0.02 -c black -o right-up
l -t * -s 3 -d 2 -S UP -r 2000000 -D 0.02 -c black -o left
X -t * -n 7 -r 10Mb -D 50ms -o left
L -t * -s 7 -d 3 -o up
L -t * -s 7 -d 4 -o down
L -t * -s 7 -d 5 -o up
L -t * -s 7 -d 6 -o down
+ -t 0 -s 0 -d 2 -p tcp -e 40 -c 1 -i 0 -a 1 -x {0.0 4.0 0 ------- null}
- -t 0 -s 0 -d 2 -p tcp -e 40 -c 1 -i 0 -a 1 -x {0.0 4.0 0 ------- null}
h -t 0 -s 0 -d 2 -p tcp -e 40 -c 1 -i 0 -a 1 -x {0.0 4.0 -1 ------- null}
+ -t 0 -s 1 -d 2 -p cbr -e 210 -c 2 -i 1 -a 2 -x {1.0 6.0 0 ------- null}
- -t 0 -s 1 -d 2 -p cbr -e 210 -c 2 -i 1 -a 2 -x {1.0 6.0 0 ------- null}
h -t 0 -s 1 -d 2 -p cbr -e 210 -c 2 -i 1 -a 2 -x {1.0 6.0 -1 ------- null}
+ -t 0.00375 -s 1 -d 2 -p cbr -e 210 -c 2 -i 2 -a 2 -x {1.0 6.0 1 ------- null}
- -t 0.00375 -s 1 -d 2 -p cbr -e 210 -c 2 -i 2 -a 2 -x {1.0 6.0 1 ------- null}
h -t 0.00375 -s 1 -d 2 -p cbr -e 210 -c 2 -i 2 -a 2 -x {1.0 6.0 -1 ------- null}
+ -t 0.0075 -s 1 -d 2 -p cbr -e 210 -c 2 -i 3 -a 2 -x {1.0 6.0 2 ------- null}
- -t 0.0075 -s 1 -d 2 -p cbr -e 210 -c 2 -i 3 -a 2 -x {1.0 6.0 2 ------- null}
h -t 0.0075 -s 1 -d 2 -p cbr -e 210 -c 2 -i 3 -a 2 -x {1.0 6.0 -1 ------- null}
+ -t 0.01125 -s 1 -d 2 -p cbr -e 210 -c 2 -i 4 -a 2 -x {1.0 6.0 3 ------- null}
- -t 0.01125 -s 1 -d 2 -p cbr -e 210 -c 2 -i 4 -a 2 -x {1.0 6.0 3 ------- null}
h -t 0.01125 -s 1 -d 2 -p cbr -e 210 -c 2 -i 4 -a 2 -x {1.0 6.0 -1 ------- null}
+ -t 0.015 -s 1 -d 2 -p cbr -e 210 -c 2 -i 5 -a 2 -x {1.0 6.0 4 ------- null}
- -t 0.015 -s 1 -d 2 -p cbr -e 210 -c 2 -i 5 -a 2 -x {1.0 6.0 4 ------- null}
h -t 0.015 -s 1 -d 2 -p cbr -e 210 -c 2 -i 5 -a 2 -x {1.0 6.0 -1 ------- null}
+ -t 0.01875 -s 1 -d 2 -p cbr -e 210 -c 2 -i 6 -a 2 -x {1.0 6.0 5 ------- null}
- -t 0.01875 -s 1 -d 2 -p cbr -e 210 -c 2 -i 6 -a 2 -x {1.0 6.0 5 ------- null}
h -t 0.01875 -s 1 -d 2 -p cbr -e 210 -c 2 -i 6 -a 2 -x {1.0 6.0 -1 ------- null}
r -t 0.02016 -s 0 -d 2 -p tcp -e 40 -c 1 -i 0 -a 1 -x {0.0 4.0 0 ------- null}
+ -t 0.02016 -s 2 -d 3 -p tcp -e 40 -c 1 -i 0 -a 1 -x {0.0 4.0 0 ------- null}
- -t 0.02016 -s 2 -d 3 -p tcp -e 40 -c 1 -i 0 -a 1 -x {0.0 4.0 0 ------- null}
h -t 0.02016 -s 2 -d 3 -p tcp -e 40 -c 1 -i 0 -a 1 -x {0.0 4.0 -1 ------- null}
r -t 0.02084 -s 1 -d 2 -p cbr -e 210 -c 2 -i 1 -a 2 -x {1.0 6.0 0 ------- null}
+ -t 0.02084 -s 2 -d 3 -p cbr -e 210 -c 2 -i 1 -a 2 -x {1.0 6.0 0 ------- null}
- -t 0.02084 -s 2 -d 3 -p cbr -e 210 -c 2 -i 1 -a 2 -x {1.0 6.0 0 ------- null}
h -t 0.02084 -s 2 -d 3 -p cbr -e 210 -c 2 -i 1 -a 2 -x {1.0 6.0 -1 ------- null}
+ -t 0.0225 -s 1 -d 2 -p cbr -e 210 -c 2 -i 7 -a 2 -x {1.0 6.0 6 ------- null}
- -t 0.0225 -s 1 -d 2 -p cbr -e 210 -c 2 -i 7 -a 2 -x {1.0 6.0 6 ------- null}
h -t 0.0225 -s 1 -d 2 -p cbr -e 210 -c 2 -i 7 -a 2 -x {1.0 6.0 -1 ------- null}
r -t 0.02459 -s 1 -d 2 -p cbr -e 210 -c 2 -i 2 -a 2 -x {1.0 6.0 1 ------- null}
+ -t 0.02459 -s 2 -d 3 -p cbr -e 210 -c 2 -i 2 -a 2 -x {1.0 6.0 1 ------- null}
- -t 0.02459 -s 2 -d 3 -p cbr -e 210 -c 2 -i 2 -a 2 -x {1.0 6.0 1 ------- null}
h -t 0.02459 -s 2 -d 3 -p cbr -e 210 -c 2 -i 2 -a 2 -x {1.0 6.0 -1 ------- null}
+ -t 0.02625 -s 1 -d 2 -p cbr -e 210 -c 2 -i 8 -a 2 -x {1.0 6.0 7 ------- null}
- -t 0.02625 -s 1 -d 2 -p cbr -e 210 -c 2 -i 8 -a 2 -x {1.0 6.0 7 ------- null}
h -t 0.02625 -s 1 -d 2 -p cbr -e 210 -c 2 -i 8 -a 2 -x {1.0 6.0 -1 ------- null}
r -t 0.02834 -s 1 -d 2 -p cbr -e 210 -c 2 -i 3 -a 2 -x {1.0 6.0 2 ------- null}
+ -t 0.02834 -s 2 -d 3 -p cbr -e 210 -c 2 -i 3 -a 2 -x {1.0 6.0 2 ------- null}
- -t 0.02834 -s 2 -d 3 -p cbr -e 210 -c 2 -i 3 -a 2 -x {1.0 6.0 2 ------- null}
h -t 0.02834 -s 2 -d 3 -p cbr -e 210 -c 2 -i 3 -a 2 -x {1.0 6.0 -1 ------- null}
+ -t 0.03 -s 1 -d 2 -p cbr -e 210 -c 2 -i 9 -a 2 -x {1.0 6.0 8 ------- null}
- -t 0.03 -s 1 -d 2 -p cbr -e 210 -c 2 -i 9 -a 2 -x {1.0 6.0 8 ------- null}
h -t 0.03 -s 1 -d 2 -p cbr -e 210 -c 2 -i 9 -a 2 -x {1.0 6.0 -1 ------- null}
r -t 0.03209 -s 1 -d 2 -p cbr -e 210 -c 2 -i 4 -a 2 -x {1.0 6.0 3 ------- null}
+ -t 0.03209 -s 2 -d 3 -p cbr -e 210 -c 2 -i 4 -a 2 -x {1.0 6.0 3 ------- null}
- -t 0.03209 -s 2 -d 3 -p cbr -e 210 -c 2 -i 4 -a 2 -x {1.0 6.0 3 ------- null}
h -t 0.03209 -s 2 -d 3 -p cbr -e 210 -c 2 -i 4 -a 2 -x {1.0 6.0 -1 ------- null}
+ -t 0.03375 -s 1 -d 2 -p cbr -e 210 -c 2 -i 10 -a 2 -x {1.0 6.0 9 ------- null}
- -t 0.03375 -s 1 -d 2 -p cbr -e 210 -c 2 -i 10 -a 2 -x {1.0 6.0 9 ------- null}
h -t 0.03375 -s 1 -d 2 -p cbr -e 210 -c 2 -i 10 -a 2 -x {1.0 6.0 -1 ------- null}
r -t 0.03584 -s 1 -d 2 -p cbr -e 210 -c 2 -i 5 -a 2 -x {1.0 6.0 4 ------- null}
+ -t 0.03584 -s 2 -d 3 -p cbr -e 210 -c 2 -i 5 -a 2 -x {1.0 6.0 4 ------- null}
- -t 0.03584 -s 2 -d 3 -p cbr -e 210 -c 2 -i 5 -a 2 -x {1.0 6.0 4 ------- null}
h -t 0.03584 -s 2 -d 3 -p cbr -e 210 -c 2 -i 5 -a 2 -x {1.0 6.0 -1 ------- null}
+ -t 0.0375 -s 1 -d 2 -p cbr -e 210 -c 2 -i 11 -a 2 -x {1.0 6.0 10 ------- null}
- -t 0.0375 -s 1 -d 2 -p cbr -e 210 -c 2 -i 11 -a 2 -x {1.0 6.0 10 ------- null}
h -t 0.0375 -s 1 -d 2 -p cbr -e 210 -c 2 -i 11 -a 2 -x {1.0 6.0 -1 ------- null}
r -t 0.03959 -s 1 -d 2 -p cbr -e 210 -c 2 -i 6 -a 2 -x {1.0 6.0 5 ------- null}
+ -t 0.03959 -s 2 -d 3 -p cbr -e 210 -c 2 -i 6 -a 2 -x {1.0 6.0 5 ------- null}
- -t 0.03959 -s 2 -d 3 -p cbr -e 210 -c 2 -i 6 -a 2 -x {1.0 6.0 5 ------- null}
h -t 0.03959 -s 2 -d 3 -p cbr -e 210 -c 2 -i 6 -a 2 -x {1.0 6.0 -1 ------- null}
r -t 0.04032 -s 2 -d 3 -p tcp -e 40 -c 1 -i 0 -a 1 -x {0.0 4.0 0 ------- null}
h -t 0.04032 -s 3 -d 7 -p tcp -e 40 -c 1 -i 0 -a 1 -x {0.0 4.0 0 ------- null}
+ -t 0.04125 -s 1 -d 2 -p cbr -e 210 -c 2 -i 12 -a 2 -x {1.0 6.0 11 ------- null}
- -t 0.04125 -s 1 -d 2 -p cbr -e 210 -c 2 -i 12 -a 2 -x {1.0 6.0 11 ------- null}
h -t 0.04125 -s 1 -d 2 -p cbr -e 210 -c 2 -i 12 -a 2 -x {1.0 6.0 -1 ------- null}
r -t 0.04168 -s 2 -d 3 -p cbr -e 210 -c 2 -i 1 -a 2 -x {1.0 6.0 0 ------- null}
h -t 0.04168 -s 3 -d 7 -p cbr -e 210 -c 2 -i 1 -a 2 -x {1.0 6.0 0 ------- null}
r -t 0.04334 -s 1 -d 2 -p cbr -e 210 -c 2 -i 7 -a 2 -x {1.0 6.0 6 ------- null}
+ -t 0.04334 -s 2 -d 3 -p cbr -e 210 -c 2 -i 7 -a 2 -x {1.0 6.0 6 ------- null}
- -t 0.04334 -s 2 -d 3 -p cbr -e 210 -c 2 -i 7 -a 2 -x {1.0 6.0 6 ------- null}
h -t 0.04334 -s 2 -d 3 -p cbr -e 210 -c 2 -i 7 -a 2 -x {1.0 6.0 -1 ------- null}
+ -t 0.045 -s 1 -d 2 -p cbr -e 210 -c 2 -i 13 -a 2 -x {1.0 6.0 12 ------- null}
- -t 0.045 -s 1 -d 2 -p cbr -e 210 -c 2 -i 13 -a 2 -x {1.0 6.0 12 ------- null}
h -t 0.045 -s 1 -d 2 -p cbr -e 210 -c 2 -i 13 -a 2 -x {1.0 6.0 -1 ------- null}
r -t 0.04543 -s 2 -d 3 -p cbr -e 210 -c 2 -i 2 -a 2 -x {1.0 6.0 1 ------- null}
h -t 0.04543 -s 3 -d 7 -p cbr -e 210 -c 2 -i 2 -a 2 -x {1.0 6.0 1 ------- null}
r -t 0.04709 -s 1 -d 2 -p cbr -e 210 -c 2 -i 8 -a 2 -x {1.0 6.0 7 ------- null}
+ -t 0.04709 -s 2 -d 3 -p cbr -e 210 -c 2 -i 8 -a 2 -x {1.0 6.0 7 ------- null}
- -t 0.04709 -s 2 -d 3 -p cbr -e 210 -c 2 -i 8 -a 2 -x {1.0 6.0 7 ------- null}
h -t 0.04709 -s 2 -d 3 -p cbr -e 210 -c 2 -i 8 -a 2 -x {1.0 6.0 -1 ------- null}
+ -t 0.04875 -s 1 -d 2 -p cbr -e 210 -c 2 -i 14 -a 2 -x {1.0 6.0 13 ------- null}
- -t 0.04875 -s 1 -d 2 -p cbr -e 210 -c 2 -i 14 -a 2 -x {1.0 6.0 13 ------- null}
h -t 0.04875 -s 1 -d 2 -p cbr -e 210 -c 2 -i 14 -a 2 -x {1.0 6.0 -1 ------- null}
r -t 0.04918 -s 2 -d 3 -p cbr -e 210 -c 2 -i 3 -a 2 -x {1.0 6.0 2 ------- null}
h -t 0.04918 -s 3 -d 7 -p cbr -e 210 -c 2 -i 3 -a 2 -x {1.0 6.0 2 ------- null}
r -t 0.05084 -s 1 -d 2 -p cbr -e 210 -c 2 -i 9 -a 2 -x {1.0 6.0 8 ------- null}
+ -t 0.05084 -s 2 -d 3 -p cbr -e 210 -c 2 -i 9 -a 2 -x {1.0 6.0 8 ------- null}
- -t 0.05084 -s 2 -d 3 -p cbr -e 210 -c 2 -i 9 -a 2 -x {1.0 6.0 8 ------- null}
h -t 0.05084 -s 2 -d 3 -p cbr -e 210 -c 2 -i 9 -a 2 -x {1.0 6.0 -1 ------- null}
+ -t 0.0525 -s 1 -d 2 -p cbr -e 210 -c 2 -i 15 -a 2 -x {1.0 6.0 14 ------- null}
- -t 0.0525 -s 1 -d 2 -p cbr -e 210 -c 2 -i 15 -a 2 -x {1.0 6.0 14 ------- null}
h -t 0.0525 -s 1 -d 2 -p cbr -e 210 -c 2 -i 15 -a 2 -x {1.0 6.0 -1 ------- null}
r -t 0.05293 -s 2 -d 3 -p cbr -e 210 -c 2 -i 4 -a 2 -x {1.0 6.0 3 ------- null}
h -t 0.05293 -s 3 -d 7 -p cbr -e 210 -c 2 -i 4 -a 2 -x {1.0 6.0 3 ------- null}
r -t 0.05459 -s 1 -d 2 -p cbr -e 210 -c 2 -i 10 -a 2 -x {1.0 6.0 9 ------- null}
+ -t 0.05459 -s 2 -d 3 -p cbr -e 210 -c 2 -i 10 -a 2 -x {1.0 6.0 9 ------- null}
- -t 0.05459 -s 2 -d 3 -p cbr -e 210 -c 2 -i 10 -a 2 -x {1.0 6.0 9 ------- null}
h -t 0.05459 -s 2 -d 3 -p cbr -e 210 -c 2 -i 10 -a 2 -x {1.0 6.0 -1 ------- null}
+ -t 0.05625 -s 1 -d 2 -p cbr -e 210 -c 2 -i 16 -a 2 -x {1.0 6.0 15 ------- null}
- -t 0.05625 -s 1 -d 2 -p cbr -e 210 -c 2 -i 16 -a 2 -x {1.0 6.0 15 ------- null}
h -t 0.05625 -s 1 -d 2 -p cbr -e 210 -c 2 -i 16 -a 2 -x {1.0 6.0 -1 ------- null}
r -t 0.05668 -s 2 -d 3 -p cbr -e 210 -c 2 -i 5 -a 2 -x {1.0 6.0 4 ------- null}
h -t 0.05668 -s 3 -d 7 -p cbr -e 210 -c 2 -i 5 -a 2 -x {1.0 6.0 4 ------- null}
r -t 0.05834 -s 1 -d 2 -p cbr -e 210 -c 2 -i 11 -a 2 -x {1.0 6.0 10 ------- null}
+ -t 0.05834 -s 2 -d 3 -p cbr -e 210 -c 2 -i 11 -a 2 -x {1.0 6.0 10 ------- null}
- -t 0.05834 -s 2 -d 3 -p cbr -e 210 -c 2 -i 11 -a 2 -x {1.0 6.0 10 ------- null}
h -t 0.05834 -s 2 -d 3 -p cbr -e 210 -c 2 -i 11 -a 2 -x {1.0 6.0 -1 ------- null}
+ -t 0.06 -s 1 -d 2 -p cbr -e 210 -c 2 -i 17 -a 2 -x {1.0 6.0 16 ------- null}
- -t 0.06 -s 1 -d 2 -p cbr -e 210 -c 2 -i 17 -a 2 -x {1.0 6.0 16 ------- null}
h -t 0.06 -s 1 -d 2 -p cbr -e 210 -c 2 -i 17 -a 2 -x {1.0 6.0 -1 ------- null}
r -t 0.06043 -s 2 -d 3 -p cbr -e 210 -c 2 -i 6 -a 2 -x {1.0 6.0 5 ------- null}
h -t 0.06043 -s 3 -d 7 -p cbr -e 210 -c 2 -i 6 -a 2 -x {1.0 6.0 5 ------- null}
r -t 0.06209 -s 1 -d 2 -p cbr -e 210 -c 2 -i 12 -a 2 -x {1.0 6.0 11 ------- null}
+ -t 0.06209 -s 2 -d 3 -p cbr -e 210 -c 2 -i 12 -a 2 -x {1.0 6.0 11 ------- null}
- -t 0.06209 -s 2 -d 3 -p cbr -e 210 -c 2 -i 12 -a 2 -x {1.0 6.0 11 ------- null}
h -t 0.06209 -s 2 -d 3 -p cbr -e 210 -c 2 -i 12 -a 2 -x {1.0 6.0 -1 ------- null}
+ -t 0.06375 -s 1 -d 2 -p cbr -e 210 -c 2 -i 18 -a 2 -x {1.0 6.0 17 ------- null}
- -t 0.06375 -s 1 -d 2 -p cbr -e 210 -c 2 -i 18 -a 2 -x {1.0 6.0 17 ------- null}
h -t 0.06375 -s 1 -d 2 -p cbr -e 210 -c 2 -i 18 -a 2 -x {1.0 6.0 -1 ------- null}
r -t 0.06418 -s 2 -d 3 -p cbr -e 210 -c 2 -i 7 -a 2 -x {1.0 6.0 6 ------- null}
h -t 0.06418 -s 3 -d 7 -p cbr -e 210 -c 2 -i 7 -a 2 -x {1.0 6.0 6 ------- null}
r -t 0.06584 -s 1 -d 2 -p cbr -e 210 -c 2 -i 13 -a 2 -x {1.0 6.0 12 ------- null}
+ -t 0.06584 -s 2 -d 3 -p cbr -e 210 -c 2 -i 13 -a 2 -x {1.0 6.0 12 ------- null}
- -t 0.06584 -s 2 -d 3 -p cbr -e 210 -c 2 -i 13 -a 2 -x {1.0 6.0 12 ------- null}
h -t 0.06584 -s 2 -d 3 -p cbr -e 210 -c 2 -i 13 -a 2 -x {1.0 6.0 -1 ------- null}
+ -t 0.0675 -s 1 -d 2 -p cbr -e 210 -c 2 -i 19 -a 2 -x {1.0 6.0 18 ------- null}
- -t 0.0675 -s 1 -d 2 -p cbr -e 210 -c 2 -i 19 -a 2 -x {1.0 6.0 18 ------- null}
h -t 0.0675 -s 1 -d 2 -p cbr -e 210 -c 2 -i 19 -a 2 -x {1.0 6.0 -1 ------- null}
r -t 0.06793 -s 2 -d 3 -p cbr -e 210 -c 2 -i 8 -a 2 -x {1.0 6.0 7 ------- null}
h -t 0.06793 -s 3 -d 7 -p cbr -e 210 -c 2 -i 8 -a 2 -x {1.0 6.0 7 ------- null}
r -t 0.06959 -s 1 -d 2 -p cbr -e 210 -c 2 -i 14 -a 2 -x {1.0 6.0 13 ------- null}
+ -t 0.06959 -s 2 -d 3 -p cbr -e 210 -c 2 -i 14 -a 2 -x {1.0 6.0 13 ------- null}
- -t 0.06959 -s 2 -d 3 -p cbr -e 210 -c 2 -i 14 -a 2 -x {1.0 6.0 13 ------- null}
h -t 0.06959 -s 2 -d 3 -p cbr -e 210 -c 2 -i 14 -a 2 -x {1.0 6.0 -1 ------- null}
+ -t 0.07125 -s 1 -d 2 -p cbr -e 210 -c 2 -i 20 -a 2 -x {1.0 6.0 19 ------- null}
- -t 0.07125 -s 1 -d 2 -p cbr -e 210 -c 2 -i 20 -a 2 -x {1.0 6.0 19 ------- null}
h -t 0.07125 -s 1 -d 2 -p cbr -e 210 -c 2 -i 20 -a 2 -x {1.0 6.0 -1 ------- null}
r -t 0.07168 -s 2 -d 3 -p cbr -e 210 -c 2 -i 9 -a 2 -x {1.0 6.0 8 ------- null}
h -t 0.07168 -s 3 -d 7 -p cbr -e 210 -c 2 -i 9 -a 2 -x {1.0 6.0 8 ------- null}
r -t 0.07334 -s 1 -d 2 -p cbr -e 210 -c 2 -i 15 -a 2 -x {1.0 6.0 14 ------- null}
+ -t 0.07334 -s 2 -d 3 -p cbr -e 210 -c 2 -i 15 -a 2 -x {1.0 6.0 14 ------- null}
- -t 0.07334 -s 2 -d 3 -p cbr -e 210 -c 2 -i 15 -a 2 -x {1.0 6.0 14 ------- null}
h -t 0.07334 -s 2 -d 3 -p cbr -e 210 -c 2 -i 15 -a 2 -x {1.0 6.0 -1 ------- null}
+ -t 0.075 -s 1 -d 2 -p cbr -e 210 -c 2 -i 21 -a 2 -x {1.0 6.0 20 ------- null}
- -t 0.075 -s 1 -d 2 -p cbr -e 210 -c 2 -i 21 -a 2 -x {1.0 6.0 20 ------- null}
h -t 0.075 -s 1 -d 2 -p cbr -e 210 -c 2 -i 21 -a 2 -x {1.0 6.0 -1 ------- null}
r -t 0.07543 -s 2 -d 3 -p cbr -e 210 -c 2 -i 10 -a 2 -x {1.0 6.0 9 ------- null}
h -t 0.07543 -s 3 -d 7 -p cbr -e 210 -c 2 -i 10 -a 2 -x {1.0 6.0 9 ------- null}
r -t 0.07709 -s 1 -d 2 -p cbr -e 210 -c 2 -i 16 -a 2 -x {1.0 6.0 15 ------- null}
+ -t 0.07709 -s 2 -d 3 -p cbr -e 210 -c 2 -i 16 -a 2 -x {1.0 6.0 15 ------- null}
- -t 0.07709 -s 2 -d 3 -p cbr -e 210 -c 2 -i 16 -a 2 -x {1.0 6.0 15 ------- null}
h -t 0.07709 -s 2 -d 3 -p cbr -e 210 -c 2 -i 16 -a 2 -x {1.0 6.0 -1 ------- null}
+ -t 0.07875 -s 1 -d 2 -p cbr -e 210 -c 2 -i 22 -a 2 -x {1.0 6.0 21 ------- null}
- -t 0.07875 -s 1 -d 2 -p cbr -e 210 -c 2 -i 22 -a 2 -x {1.0 6.0 21 ------- null}
h -t 0.07875 -s 1 -d 2 -p cbr -e 210 -c 2 -i 22 -a 2 -x {1.0 6.0 -1 ------- null}
r -t 0.07918 -s 2 -d 3 -p cbr -e 210 -c 2 -i 11 -a 2 -x {1.0 6.0 10 ------- null}
h -t 0.07918 -s 3 -d 7 -p cbr -e 210 -c 2 -i 11 -a 2 -x {1.0 6.0 10 ------- null}
r -t 0.08084 -s 1 -d 2 -p cbr -e 210 -c 2 -i 17 -a 2 -x {1.0 6.0 16 ------- null}
+ -t 0.08084 -s 2 -d 3 -p cbr -e 210 -c 2 -i 17 -a 2 -x {1.0 6.0 16 ------- null}
- -t 0.08084 -s 2 -d 3 -p cbr -e 210 -c 2 -i 17 -a 2 -x {1.0 6.0 16 ------- null}
h -t 0.08084 -s 2 -d 3 -p cbr -e 210 -c 2 -i 17 -a 2 -x {1.0 6.0 -1 ------- null}
+ -t 0.0825 -s 1 -d 2 -p cbr -e 210 -c 2 -i 23 -a 2 -x {1.0 6.0 22 ------- null}
- -t 0.0825 -s 1 -d 2 -p cbr -e 210 -c 2 -i 23 -a 2 -x {1.0 6.0 22 ------- null}
h -t 0.0825 -s 1 -d 2 -p cbr -e 210 -c 2 -i 23 -a 2 -x {1.0 6.0 -1 ------- null}
r -t 0.08293 -s 2 -d 3 -p cbr -e 210 -c 2 -i 12 -a 2 -x {1.0 6.0 11 ------- null}
h -t 0.08293 -s 3 -d 7 -p cbr -e 210 -c 2 -i 12 -a 2 -x {1.0 6.0 11 ------- null}
r -t 0.08459 -s 1 -d 2 -p cbr -e 210 -c 2 -i 18 -a 2 -x {1.0 6.0 17 ------- null}
+ -t 0.08459 -s 2 -d 3 -p cbr -e 210 -c 2 -i 18 -a 2 -x {1.0 6.0 17 ------- null}
- -t 0.08459 -s 2 -d 3 -p cbr -e 210 -c 2 -i 18 -a 2 -x {1.0 6.0 17 ------- null}
h -t 0.08459 -s 2 -d 3 -p cbr -e 210 -c 2 -i 18 -a 2 -x {1.0 6.0 -1 ------- null}
+ -t 0.08625 -s 1 -d 2 -p cbr -e 210 -c 2 -i 24 -a 2 -x {1.0 6.0 23 ------- null}
- -t 0.08625 -s 1 -d 2 -p cbr -e 210 -c 2 -i 24 -a 2 -x {1.0 6.0 23 ------- null}
h -t 0.08625 -s 1 -d 2 -p cbr -e 210 -c 2 -i 24 -a 2 -x {1.0 6.0 -1 ------- null}
r -t 0.08668 -s 2 -d 3 -p cbr -e 210 -c 2 -i 13 -a 2 -x {1.0 6.0 12 ------- null}
h -t 0.08668 -s 3 -d 7 -p cbr -e 210 -c 2 -i 13 -a 2 -x {1.0 6.0 12 ------- null}
r -t 0.08834 -s 1 -d 2 -p cbr -e 210 -c 2 -i 19 -a 2 -x {1.0 6.0 18 ------- null}
+ -t 0.08834 -s 2 -d 3 -p cbr -e 210 -c 2 -i 19 -a 2 -x {1.0 6.0 18 ------- null}
- -t 0.08834 -s 2 -d 3 -p cbr -e 210 -c 2 -i 19 -a 2 -x {1.0 6.0 18 ------- null}
h -t 0.08834 -s 2 -d 3 -p cbr -e 210 -c 2 -i 19 -a 2 -x {1.0 6.0 -1 ------- null}
+ -t 0.0900000000000001 -s 1 -d 2 -p cbr -e 210 -c 2 -i 25 -a 2 -x {1.0 6.0 24 ------- null}
- -t 0.0900000000000001 -s 1 -d 2 -p cbr -e 210 -c 2 -i 25 -a 2 -x {1.0 6.0 24 ------- null}
h -t 0.0900000000000001 -s 1 -d 2 -p cbr -e 210 -c 2 -i 25 -a 2 -x {1.0 6.0 -1 ------- null}
+ -t 0.09032 -s 3 -d 7 -p tcp -e 40 -c 1 -i 0 -a 1 -x {0.0 4.0 0 ------- null}
- -t 0.09032 -s 3 -d 7 -p tcp -e 40 -c 1 -i 0 -a 1 -x {0.0 4.0 0 ------- null}
h -t 0.09032 -s 3 -d 7 -p tcp -e 40 -c 1 -i 0 -a 1 -x {0.0 4.0 -1 ------- null}
d -t 0.090324 -s 6 -d 7 -p tcp -e 40 -c 1 -i 0 -a 1 -x {0.0 4.0 0 ------- null}
d -t 0.090324 -s 5 -d 7 -p tcp -e 40 -c 1 -i 0 -a 1 -x {0.0 4.0 0 ------- null}
r -t 0.09043 -s 2 -d 3 -p cbr -e 210 -c 2 -i 14 -a 2 -x {1.0 6.0 13 ------- null}
h -t 0.09043 -s 3 -d 7 -p cbr -e 210 -c 2 -i 14 -a 2 -x {1.0 6.0 13 ------- null}
+ -t 0.09168 -s 3 -d 7 -p cbr -e 210 -c 2 -i 1 -a 2 -x {1.0 6.0 0 ------- null}
- -t 0.09168 -s 3 -d 7 -p cbr -e 210 -c 2 -i 1 -a 2 -x {1.0 6.0 0 ------- null}
h -t 0.09168 -s 3 -d 7 -p cbr -e 210 -c 2 -i 1 -a 2 -x {1.0 6.0 -1 ------- null}
d -t 0.091684 -s 5 -d 7 -p cbr -e 210 -c 2 -i 1 -a 2 -x {1.0 6.0 0 ------- null}
d -t 0.091684 -s 4 -d 7 -p cbr -e 210 -c 2 -i 1 -a 2 -x {1.0 6.0 0 ------- null}
r -t 0.09209 -s 1 -d 2 -p cbr -e 210 -c 2 -i 20 -a 2 -x {1.0 6.0 19 ------- null}
+ -t 0.09209 -s 2 -d 3 -p cbr -e 210 -c 2 -i 20 -a 2 -x {1.0 6.0 19 ------- null}
- -t 0.09209 -s 2 -d 3 -p cbr -e 210 -c 2 -i 20 -a 2 -x {1.0 6.0 19 ------- null}
h -t 0.09209 -s 2 -d 3 -p cbr -e 210 -c 2 -i 20 -a 2 -x {1.0 6.0 -1 ------- null}
+ -t 0.0937500000000001 -s 1 -d 2 -p cbr -e 210 -c 2 -i 26 -a 2 -x {1.0 6.0 25 ------- null}
- -t 0.0937500000000001 -s 1 -d 2 -p cbr -e 210 -c 2 -i 26 -a 2 -x {1.0 6.0 25 ------- null}
h -t 0.0937500000000001 -s 1 -d 2 -p cbr -e 210 -c 2 -i 26 -a 2 -x {1.0 6.0 -1 ------- null}
r -t 0.09418 -s 2 -d 3 -p cbr -e 210 -c 2 -i 15 -a 2 -x {1.0 6.0 14 ------- null}
h -t 0.09418 -s 3 -d 7 -p cbr -e 210 -c 2 -i 15 -a 2 -x {1.0 6.0 14 ------- null}
+ -t 0.09543 -s 3 -d 7 -p cbr -e 210 -c 2 -i 2 -a 2 -x {1.0 6.0 1 ------- null}
- -t 0.09543 -s 3 -d 7 -p cbr -e 210 -c 2 -i 2 -a 2 -x {1.0 6.0 1 ------- null}
h -t 0.09543 -s 3 -d 7 -p cbr -e 210 -c 2 -i 2 -a 2 -x {1.0 6.0 -1 ------- null}
d -t 0.095434 -s 5 -d 7 -p cbr -e 210 -c 2 -i 2 -a 2 -x {1.0 6.0 1 ------- null}
d -t 0.095434 -s 4 -d 7 -p cbr -e 210 -c 2 -i 2 -a 2 -x {1.0 6.0 1 ------- null}
r -t 0.09584 -s 1 -d 2 -p cbr -e 210 -c 2 -i 21 -a 2 -x {1.0 6.0 20 ------- null}
+ -t 0.09584 -s 2 -d 3 -p cbr -e 210 -c 2 -i 21 -a 2 -x {1.0 6.0 20 ------- null}
- -t 0.09584 -s 2 -d 3 -p cbr -e 210 -c 2 -i 21 -a 2 -x {1.0 6.0 20 ------- null}
h -t 0.09584 -s 2 -d 3 -p cbr -e 210 -c 2 -i 21 -a 2 -x {1.0 6.0 -1 ------- null}
+ -t 0.0975000000000001 -s 1 -d 2 -p cbr -e 210 -c 2 -i 27 -a 2 -x {1.0 6.0 26 ------- null}
- -t 0.0975000000000001 -s 1 -d 2 -p cbr -e 210 -c 2 -i 27 -a 2 -x {1.0 6.0 26 ------- null}
h -t 0.0975000000000001 -s 1 -d 2 -p cbr -e 210 -c 2 -i 27 -a 2 -x {1.0 6.0 -1 ------- null}
r -t 0.09793 -s 2 -d 3 -p cbr -e 210 -c 2 -i 16 -a 2 -x {1.0 6.0 15 ------- null}
h -t 0.09793 -s 3 -d 7 -p cbr -e 210 -c 2 -i 16 -a 2 -x {1.0 6.0 15 ------- null}
+ -t 0.09918 -s 3 -d 7 -p cbr -e 210 -c 2 -i 3 -a 2 -x {1.0 6.0 2 ------- null}
- -t 0.09918 -s 3 -d 7 -p cbr -e 210 -c 2 -i 3 -a 2 -x {1.0 6.0 2 ------- null}
h -t 0.09918 -s 3 -d 7 -p cbr -e 210 -c 2 -i 3 -a 2 -x {1.0 6.0 -1 ------- null}
d -t 0.099184 -s 5 -d 7 -p cbr -e 210 -c 2 -i 3 -a 2 -x {1.0 6.0 2 ------- null}
d -t 0.099184 -s 4 -d 7 -p cbr -e 210 -c 2 -i 3 -a 2 -x {1.0 6.0 2 ------- null}
r -t 0.09959 -s 1 -d 2 -p cbr -e 210 -c 2 -i 22 -a 2 -x {1.0 6.0 21 ------- null}
+ -t 0.09959 -s 2 -d 3 -p cbr -e 210 -c 2 -i 22 -a 2 -x {1.0 6.0 21 ------- null}
- -t 0.09959 -s 2 -d 3 -p cbr -e 210 -c 2 -i 22 -a 2 -x {1.0 6.0 21 ------- null}
h -t 0.09959 -s 2 -d 3 -p cbr -e 210 -c 2 -i 22 -a 2 -x {1.0 6.0 -1 ------- null}
+ -t 0.10125 -s 1 -d 2 -p cbr -e 210 -c 2 -i 28 -a 2 -x {1.0 6.0 27 ------- null}
- -t 0.10125 -s 1 -d 2 -p cbr -e 210 -c 2 -i 28 -a 2 -x {1.0 6.0 27 ------- null}
h -t 0.10125 -s 1 -d 2 -p cbr -e 210 -c 2 -i 28 -a 2 -x {1.0 6.0 -1 ------- null}
r -t 0.10168 -s 2 -d 3 -p cbr -e 210 -c 2 -i 17 -a 2 -x {1.0 6.0 16 ------- null}
h -t 0.10168 -s 3 -d 7 -p cbr -e 210 -c 2 -i 17 -a 2 -x {1.0 6.0 16 ------- null}
+ -t 0.10293 -s 3 -d 7 -p cbr -e 210 -c 2 -i 4 -a 2 -x {1.0 6.0 3 ------- null}
- -t 0.10293 -s 3 -d 7 -p cbr -e 210 -c 2 -i 4 -a 2 -x {1.0 6.0 3 ------- null}
h -t 0.10293 -s 3 -d 7 -p cbr -e 210 -c 2 -i 4 -a 2 -x {1.0 6.0 -1 ------- null}
d -t 0.102934 -s 5 -d 7 -p cbr -e 210 -c 2 -i 4 -a 2 -x {1.0 6.0 3 ------- null}
d -t 0.102934 -s 4 -d 7 -p cbr -e 210 -c 2 -i 4 -a 2 -x {1.0 6.0 3 ------- null}
r -t 0.10334 -s 1 -d 2 -p cbr -e 210 -c 2 -i 23 -a 2 -x {1.0 6.0 22 ------- null}
+ -t 0.10334 -s 2 -d 3 -p cbr -e 210 -c 2 -i 23 -a 2 -x {1.0 6.0 22 ------- null}
- -t 0.10334 -s 2 -d 3 -p cbr -e 210 -c 2 -i 23 -a 2 -x {1.0 6.0 22 ------- null}
h -t 0.10334 -s 2 -d 3 -p cbr -e 210 -c 2 -i 23 -a 2 -x {1.0 6.0 -1 ------- null}
+ -t 0.105 -s 1 -d 2 -p cbr -e 210 -c 2 -i 29 -a 2 -x {1.0 6.0 28 ------- null}
- -t 0.105 -s 1 -d 2 -p cbr -e 210 -c 2 -i 29 -a 2 -x {1.0 6.0 28 ------- null}
h -t 0.105 -s 1 -d 2 -p cbr -e 210 -c 2 -i 29 -a 2 -x {1.0 6.0 -1 ------- null}
r -t 0.10543 -s 2 -d 3 -p cbr -e 210 -c 2 -i 18 -a 2 -x {1.0 6.0 17 ------- null}
h -t 0.10543 -s 3 -d 7 -p cbr -e 210 -c 2 -i 18 -a 2 -x {1.0 6.0 17 ------- null}
+ -t 0.10668 -s 3 -d 7 -p cbr -e 210 -c 2 -i 5 -a 2 -x {1.0 6.0 4 ------- null}
- -t 0.10668 -s 3 -d 7 -p cbr -e 210 -c 2 -i 5 -a 2 -x {1.0 6.0 4 ------- null}
h -t 0.10668 -s 3 -d 7 -p cbr -e 210 -c 2 -i 5 -a 2 -x {1.0 6.0 -1 ------- null}
d -t 0.106684 -s 5 -d 7 -p cbr -e 210 -c 2 -i 5 -a 2 -x {1.0 6.0 4 ------- null}
d -t 0.106684 -s 4 -d 7 -p cbr -e 210 -c 2 -i 5 -a 2 -x {1.0 6.0 4 ------- null}
r -t 0.10709 -s 1 -d 2 -p cbr -e 210 -c 2 -i 24 -a 2 -x {1.0 6.0 23 ------- null}
+ -t 0.10709 -s 2 -d 3 -p cbr -e 210 -c 2 -i 24 -a 2 -x {1.0 6.0 23 ------- null}
- -t 0.10709 -s 2 -d 3 -p cbr -e 210 -c 2 -i 24 -a 2 -x {1.0 6.0 23 ------- null}
h -t 0.10709 -s 2 -d 3 -p cbr -e 210 -c 2 -i 24 -a 2 -x {1.0 6.0 -1 ------- null}
+ -t 0.10875 -s 1 -d 2 -p cbr -e 210 -c 2 -i 30 -a 2 -x {1.0 6.0 29 ------- null}
- -t 0.10875 -s 1 -d 2 -p cbr -e 210 -c 2 -i 30 -a 2 -x {1.0 6.0 29 ------- null}
h -t 0.10875 -s 1 -d 2 -p cbr -e 210 -c 2 -i 30 -a 2 -x {1.0 6.0 -1 ------- null}
r -t 0.10918 -s 2 -d 3 -p cbr -e 210 -c 2 -i 19 -a 2 -x {1.0 6.0 18 ------- null}
h -t 0.10918 -s 3 -d 7 -p cbr -e 210 -c 2 -i 19 -a 2 -x {1.0 6.0 18 ------- null}
+ -t 0.11043 -s 3 -d 7 -p cbr -e 210 -c 2 -i 6 -a 2 -x {1.0 6.0 5 ------- null}
- -t 0.11043 -s 3 -d 7 -p cbr -e 210 -c 2 -i 6 -a 2 -x {1.0 6.0 5 ------- null}
h -t 0.11043 -s 3 -d 7 -p cbr -e 210 -c 2 -i 6 -a 2 -x {1.0 6.0 -1 ------- null}
d -t 0.110434 -s 5 -d 7 -p cbr -e 210 -c 2 -i 6 -a 2 -x {1.0 6.0 5 ------- null}
d -t 0.110434 -s 4 -d 7 -p cbr -e 210 -c 2 -i 6 -a 2 -x {1.0 6.0 5 ------- null}
r -t 0.11084 -s 1 -d 2 -p cbr -e 210 -c 2 -i 25 -a 2 -x {1.0 6.0 24 ------- null}
+ -t 0.11084 -s 2 -d 3 -p cbr -e 210 -c 2 -i 25 -a 2 -x {1.0 6.0 24 ------- null}
- -t 0.11084 -s 2 -d 3 -p cbr -e 210 -c 2 -i 25 -a 2 -x {1.0 6.0 24 ------- null}
h -t 0.11084 -s 2 -d 3 -p cbr -e 210 -c 2 -i 25 -a 2 -x {1.0 6.0 -1 ------- null}
+ -t 0.1125 -s 1 -d 2 -p cbr -e 210 -c 2 -i 31 -a 2 -x {1.0 6.0 30 ------- null}
- -t 0.1125 -s 1 -d 2 -p cbr -e 210 -c 2 -i 31 -a 2 -x {1.0 6.0 30 ------- null}
h -t 0.1125 -s 1 -d 2 -p cbr -e 210 -c 2 -i 31 -a 2 -x {1.0 6.0 -1 ------- null}
r -t 0.11293 -s 2 -d 3 -p cbr -e 210 -c 2 -i 20 -a 2 -x {1.0 6.0 19 ------- null}
h -t 0.11293 -s 3 -d 7 -p cbr -e 210 -c 2 -i 20 -a 2 -x {1.0 6.0 19 ------- null}
+ -t 0.11418 -s 3 -d 7 -p cbr -e 210 -c 2 -i 7 -a 2 -x {1.0 6.0 6 ------- null}
- -t 0.11418 -s 3 -d 7 -p cbr -e 210 -c 2 -i 7 -a 2 -x {1.0 6.0 6 ------- null}
h -t 0.11418 -s 3 -d 7 -p cbr -e 210 -c 2 -i 7 -a 2 -x {1.0 6.0 -1 ------- null}
d -t 0.114184 -s 5 -d 7 -p cbr -e 210 -c 2 -i 7 -a 2 -x {1.0 6.0 6 ------- null}
d -t 0.114184 -s 4 -d 7 -p cbr -e 210 -c 2 -i 7 -a 2 -x {1.0 6.0 6 ------- null}
r -t 0.11459 -s 1 -d 2 -p cbr -e 210 -c 2 -i 26 -a 2 -x {1.0 6.0 25 ------- null}
+ -t 0.11459 -s 2 -d 3 -p cbr -e 210 -c 2 -i 26 -a 2 -x {1.0 6.0 25 ------- null}
- -t 0.11459 -s 2 -d 3 -p cbr -e 210 -c 2 -i 26 -a 2 -x {1.0 6.0 25 ------- null}
h -t 0.11459 -s 2 -d 3 -p cbr -e 210 -c 2 -i 26 -a 2 -x {1.0 6.0 -1 ------- null}
+ -t 0.11625 -s 1 -d 2 -p cbr -e 210 -c 2 -i 32 -a 2 -x {1.0 6.0 31 ------- null}
- -t 0.11625 -s 1 -d 2 -p cbr -e 210 -c 2 -i 32 -a 2 -x {1.0 6.0 31 ------- null}
h -t 0.11625 -s 1 -d 2 -p cbr -e 210 -c 2 -i 32 -a 2 -x {1.0 6.0 -1 ------- null}
r -t 0.11668 -s 2 -d 3 -p cbr -e 210 -c 2 -i 21 -a 2 -x {1.0 6.0 20 ------- null}
h -t 0.11668 -s 3 -d 7 -p cbr -e 210 -c 2 -i 21 -a 2 -x {1.0 6.0 20 ------- null}
+ -t 0.11793 -s 3 -d 7 -p cbr -e 210 -c 2 -i 8 -a 2 -x {1.0 6.0 7 ------- null}
- -t 0.11793 -s 3 -d 7 -p cbr -e 210 -c 2 -i 8 -a 2 -x {1.0 6.0 7 ------- null}
h -t 0.11793 -s 3 -d 7 -p cbr -e 210 -c 2 -i 8 -a 2 -x {1.0 6.0 -1 ------- null}
d -t 0.117934 -s 5 -d 7 -p cbr -e 210 -c 2 -i 8 -a 2 -x {1.0 6.0 7 ------- null}
d -t 0.117934 -s 4 -d 7 -p cbr -e 210 -c 2 -i 8 -a 2 -x {1.0 6.0 7 ------- null}
r -t 0.11834 -s 1 -d 2 -p cbr -e 210 -c 2 -i 27 -a 2 -x {1.0 6.0 26 ------- null}
+ -t 0.11834 -s 2 -d 3 -p cbr -e 210 -c 2 -i 27 -a 2 -x {1.0 6.0 26 ------- null}
- -t 0.11834 -s 2 -d 3 -p cbr -e 210 -c 2 -i 27 -a 2 -x {1.0 6.0 26 ------- null}
h -t 0.11834 -s 2 -d 3 -p cbr -e 210 -c 2 -i 27 -a 2 -x {1.0 6.0 -1 ------- null}
+ -t 0.12 -s 1 -d 2 -p cbr -e 210 -c 2 -i 33 -a 2 -x {1.0 6.0 32 ------- null}
- -t 0.12 -s 1 -d 2 -p cbr -e 210 -c 2 -i 33 -a 2 -x {1.0 6.0 32 ------- null}
h -t 0.12 -s 1 -d 2 -p cbr -e 210 -c 2 -i 33 -a 2 -x {1.0 6.0 -1 ------- null}
r -t 0.12043 -s 2 -d 3 -p cbr -e 210 -c 2 -i 22 -a 2 -x {1.0 6.0 21 ------- null}
h -t 0.12043 -s 3 -d 7 -p cbr -e 210 -c 2 -i 22 -a 2 -x {1.0 6.0 21 ------- null}
+ -t 0.12168 -s 3 -d 7 -p cbr -e 210 -c 2 -i 9 -a 2 -x {1.0 6.0 8 ------- null}
- -t 0.12168 -s 3 -d 7 -p cbr -e 210 -c 2 -i 9 -a 2 -x {1.0 6.0 8 ------- null}
h -t 0.12168 -s 3 -d 7 -p cbr -e 210 -c 2 -i 9 -a 2 -x {1.0 6.0 -1 ------- null}
d -t 0.121684 -s 5 -d 7 -p cbr -e 210 -c 2 -i 9 -a 2 -x {1.0 6.0 8 ------- null}
d -t 0.121684 -s 4 -d 7 -p cbr -e 210 -c 2 -i 9 -a 2 -x {1.0 6.0 8 ------- null}
r -t 0.12209 -s 1 -d 2 -p cbr -e 210 -c 2 -i 28 -a 2 -x {1.0 6.0 27 ------- null}
+ -t 0.12209 -s 2 -d 3 -p cbr -e 210 -c 2 -i 28 -a 2 -x {1.0 6.0 27 ------- null}
- -t 0.12209 -s 2 -d 3 -p cbr -e 210 -c 2 -i 28 -a 2 -x {1.0 6.0 27 ------- null}
h -t 0.12209 -s 2 -d 3 -p cbr -e 210 -c 2 -i 28 -a 2 -x {1.0 6.0 -1 ------- null}
+ -t 0.12375 -s 1 -d 2 -p cbr -e 210 -c 2 -i 34 -a 2 -x {1.0 6.0 33 ------- null}
- -t 0.12375 -s 1 -d 2 -p cbr -e 210 -c 2 -i 34 -a 2 -x {1.0 6.0 33 ------- null}
h -t 0.12375 -s 1 -d 2 -p cbr -e 210 -c 2 -i 34 -a 2 -x {1.0 6.0 -1 ------- null}
r -t 0.12418 -s 2 -d 3 -p cbr -e 210 -c 2 -i 23 -a 2 -x {1.0 6.0 22 ------- null}
h -t 0.12418 -s 3 -d 7 -p cbr -e 210 -c 2 -i 23 -a 2 -x {1.0 6.0 22 ------- null}
+ -t 0.12543 -s 3 -d 7 -p cbr -e 210 -c 2 -i 10 -a 2 -x {1.0 6.0 9 ------- null}
- -t 0.12543 -s 3 -d 7 -p cbr -e 210 -c 2 -i 10 -a 2 -x {1.0 6.0 9 ------- null}
h -t 0.12543 -s 3 -d 7 -p cbr -e 210 -c 2 -i 10 -a 2 -x {1.0 6.0 -1 ------- null}
d -t 0.125434 -s 5 -d 7 -p cbr -e 210 -c 2 -i 10 -a 2 -x {1.0 6.0 9 ------- null}
d -t 0.125434 -s 4 -d 7 -p cbr -e 210 -c 2 -i 10 -a 2 -x {1.0 6.0 9 ------- null}
r -t 0.12584 -s 1 -d 2 -p cbr -e 210 -c 2 -i 29 -a 2 -x {1.0 6.0 28 ------- null}
+ -t 0.12584 -s 2 -d 3 -p cbr -e 210 -c 2 -i 29 -a 2 -x {1.0 6.0 28 ------- null}
- -t 0.12584 -s 2 -d 3 -p cbr -e 210 -c 2 -i 29 -a 2 -x {1.0 6.0 28 ------- null}
h -t 0.12584 -s 2 -d 3 -p cbr -e 210 -c 2 -i 29 -a 2 -x {1.0 6.0 -1 ------- null}
+ -t 0.1275 -s 1 -d 2 -p cbr -e 210 -c 2 -i 35 -a 2 -x {1.0 6.0 34 ------- null}
- -t 0.1275 -s 1 -d 2 -p cbr -e 210 -c 2 -i 35 -a 2 -x {1.0 6.0 34 ------- null}
h -t 0.1275 -s 1 -d 2 -p cbr -e 210 -c 2 -i 35 -a 2 -x {1.0 6.0 -1 ------- null}
r -t 0.12793 -s 2 -d 3 -p cbr -e 210 -c 2 -i 24 -a 2 -x {1.0 6.0 23 ------- null}
h -t 0.12793 -s 3 -d 7 -p cbr -e 210 -c 2 -i 24 -a 2 -x {1.0 6.0 23 ------- null}
+ -t 0.12918 -s 3 -d 7 -p cbr -e 210 -c 2 -i 11 -a 2 -x {1.0 6.0 10 ------- null}
- -t 0.12918 -s 3 -d 7 -p cbr -e 210 -c 2 -i 11 -a 2 -x {1.0 6.0 10 ------- null}
h -t 0.12918 -s 3 -d 7 -p cbr -e 210 -c 2 -i 11 -a 2 -x {1.0 6.0 -1 ------- null}
d -t 0.129184 -s 5 -d 7 -p cbr -e 210 -c 2 -i 11 -a 2 -x {1.0 6.0 10 ------- null}
d -t 0.129184 -s 4 -d 7 -p cbr -e 210 -c 2 -i 11 -a 2 -x {1.0 6.0 10 ------- null}
r -t 0.12959 -s 1 -d 2 -p cbr -e 210 -c 2 -i 30 -a 2 -x {1.0 6.0 29 ------- null}
+ -t 0.12959 -s 2 -d 3 -p cbr -e 210 -c 2 -i 30 -a 2 -x {1.0 6.0 29 ------- null}
- -t 0.12959 -s 2 -d 3 -p cbr -e 210 -c 2 -i 30 -a 2 -x {1.0 6.0 29 ------- null}
h -t 0.12959 -s 2 -d 3 -p cbr -e 210 -c 2 -i 30 -a 2 -x {1.0 6.0 -1 ------- null}
+ -t 0.13125 -s 1 -d 2 -p cbr -e 210 -c 2 -i 36 -a 2 -x {1.0 6.0 35 ------- null}
- -t 0.13125 -s 1 -d 2 -p cbr -e 210 -c 2 -i 36 -a 2 -x {1.0 6.0 35 ------- null}
h -t 0.13125 -s 1 -d 2 -p cbr -e 210 -c 2 -i 36 -a 2 -x {1.0 6.0 -1 ------- null}
r -t 0.13168 -s 2 -d 3 -p cbr -e 210 -c 2 -i 25 -a 2 -x {1.0 6.0 24 ------- null}
h -t 0.13168 -s 3 -d 7 -p cbr -e 210 -c 2 -i 25 -a 2 -x {1.0 6.0 24 ------- null}
+ -t 0.13293 -s 3 -d 7 -p cbr -e 210 -c 2 -i 12 -a 2 -x {1.0 6.0 11 ------- null}
- -t 0.13293 -s 3 -d 7 -p cbr -e 210 -c 2 -i 12 -a 2 -x {1.0 6.0 11 ------- null}
h -t 0.13293 -s 3 -d 7 -p cbr -e 210 -c 2 -i 12 -a 2 -x {1.0 6.0 -1 ------- null}
d -t 0.132934 -s 5 -d 7 -p cbr -e 210 -c 2 -i 12 -a 2 -x {1.0 6.0 11 ------- null}
d -t 0.132934 -s 4 -d 7 -p cbr -e 210 -c 2 -i 12 -a 2 -x {1.0 6.0 11 ------- null}
r -t 0.13334 -s 1 -d 2 -p cbr -e 210 -c 2 -i 31 -a 2 -x {1.0 6.0 30 ------- null}
+ -t 0.13334 -s 2 -d 3 -p cbr -e 210 -c 2 -i 31 -a 2 -x {1.0 6.0 30 ------- null}
- -t 0.13334 -s 2 -d 3 -p cbr -e 210 -c 2 -i 31 -a 2 -x {1.0 6.0 30 ------- null}
h -t 0.13334 -s 2 -d 3 -p cbr -e 210 -c 2 -i 31 -a 2 -x {1.0 6.0 -1 ------- null}
+ -t 0.135 -s 1 -d 2 -p cbr -e 210 -c 2 -i 37 -a 2 -x {1.0 6.0 36 ------- null}
- -t 0.135 -s 1 -d 2 -p cbr -e 210 -c 2 -i 37 -a 2 -x {1.0 6.0 36 ------- null}
h -t 0.135 -s 1 -d 2 -p cbr -e 210 -c 2 -i 37 -a 2 -x {1.0 6.0 -1 ------- null}