+ 0 1 0 ping 64 ------- 0 1.0 6.0 -1 0
- 0 1 0 ping 64 ------- 0 1.0 6.0 -1 0
+ 0 2 0 ping 64 ------- 0 2.0 5.0 -1 1
- 0 2 0 ping 64 ------- 0 2.0 5.0 -1 1
+ 0 3 0 ping 64 ------- 0 3.0 4.0 -1 2
- 0 3 0 ping 64 ------- 0 3.0 4.0 -1 2
+ 0 4 0 ping 64 ------- 0 4.0 3.0 -1 3
- 0 4 0 ping 64 ------- 0 4.0 3.0 -1 3
+ 0 5 0 ping 64 ------- 0 5.0 2.0 -1 4
- 0 5 0 ping 64 ------- 0 5.0 2.0 -1 4
+ 0 6 0 ping 64 ------- 0 6.0 1.0 -1 5
- 0 6 0 ping 64 ------- 0 6.0 1.0 -1 5
r 0.03024 1 0 ping 64 ------- 0 1.0 6.0 -1 0
+ 0.03024 0 6 ping 64 ------- 0 1.0 6.0 -1 0
d 0.03024 0 6 ping 64 ------- 0 1.0 6.0 -1 0
r 0.03024 2 0 ping 64 ------- 0 2.0 5.0 -1 1
+ 0.03024 0 5 ping 64 ------- 0 2.0 5.0 -1 1
- 0.03024 0 5 ping 64 ------- 0 2.0 5.0 -1 1
r 0.03024 3 0 ping 64 ------- 0 3.0 4.0 -1 2
+ 0.03024 0 4 ping 64 ------- 0 3.0 4.0 -1 2
- 0.03024 0 4 ping 64 ------- 0 3.0 4.0 -1 2
r 0.03024 4 0 ping 64 ------- 0 4.0 3.0 -1 3
+ 0.03024 0 3 ping 64 ------- 0 4.0 3.0 -1 3
- 0.03024 0 3 ping 64 ------- 0 4.0 3.0 -1 3
r 0.03024 5 0 ping 64 ------- 0 5.0 2.0 -1 4
+ 0.03024 0 2 ping 64 ------- 0 5.0 2.0 -1 4
- 0.03024 0 2 ping 64 ------- 0 5.0 2.0 -1 4
r 0.03024 6 0 ping 64 ------- 0 6.0 1.0 -1 5
+ 0.03024 0 1 ping 64 ------- 0 6.0 1.0 -1 5
d 0.03024 0 1 ping 64 ------- 0 6.0 1.0 -1 5
r 0.06048 0 5 ping 64 ------- 0 2.0 5.0 -1 1
+ 0.06048 5 0 ping 64 ------- 0 5.0 2.0 -1 6
- 0.06048 5 0 ping 64 ------- 0 5.0 2.0 -1 6
r 0.06048 0 4 ping 64 ------- 0 3.0 4.0 -1 2
+ 0.06048 4 0 ping 64 ------- 0 4.0 3.0 -1 7
- 0.06048 4 0 ping 64 ------- 0 4.0 3.0 -1 7
r 0.06048 0 3 ping 64 ------- 0 4.0 3.0 -1 3
+ 0.06048 3 0 ping 64 ------- 0 3.0 4.0 -1 8
- 0.06048 3 0 ping 64 ------- 0 3.0 4.0 -1 8
r 0.06048 0 2 ping 64 ------- 0 5.0 2.0 -1 4
+ 0.06048 2 0 ping 64 ------- 0 2.0 5.0 -1 9
- 0.06048 2 0 ping 64 ------- 0 2.0 5.0 -1 9
r 0.09072 5 0 ping 64 ------- 0 5.0 2.0 -1 6
+ 0.09072 0 2 ping 64 ------- 0 5.0 2.0 -1 6
- 0.09072 0 2 ping 64 ------- 0 5.0 2.0 -1 6
r 0.09072 4 0 ping 64 ------- 0 4.0 3.0 -1 7
+ 0.09072 0 3 ping 64 ------- 0 4.0 3.0 -1 7
- 0.09072 0 3 ping 64 ------- 0 4.0 3.0 -1 7
r 0.09072 3 0 ping 64 ------- 0 3.0 4.0 -1 8
+ 0.09072 0 4 ping 64 ------- 0 3.0 4.0 -1 8
- 0.09072 0 4 ping 64 ------- 0 3.0 4.0 -1 8
r 0.09072 2 0 ping 64 ------- 0 2.0 5.0 -1 9
+ 0.09072 0 5 ping 64 ------- 0 2.0 5.0 -1 9
- 0.09072 0 5 ping 64 ------- 0 2.0 5.0 -1 9
r 0.12096 0 2 ping 64 ------- 0 5.0 2.0 -1 6
r 0.12096 0 3 ping 64 ------- 0 4.0 3.0 -1 7
r 0.12096 0 4 ping 64 ------- 0 3.0 4.0 -1 8
r 0.12096 0 5 ping 64 ------- 0 2.0 5.0 -1 9
