+ 0.2 0 1 cbr 500 ------- 0 0.0 2.0 0 0
- 0.2 0 1 cbr 500 ------- 0 0.0 2.0 0 0
+ 0.205 0 1 cbr 500 ------- 0 0.0 2.0 1 1
- 0.205 0 1 cbr 500 ------- 0 0.0 2.0 1 1
+ 0.21 0 1 cbr 500 ------- 0 0.0 2.0 2 2
- 0.21 0 1 cbr 500 ------- 0 0.0 2.0 2 2
+ 0.215 0 1 cbr 500 ------- 0 0.0 2.0 3 3
- 0.215 0 1 cbr 500 ------- 0 0.0 2.0 3 3
+ 0.22 0 1 cbr 500 ------- 0 0.0 2.0 4 4
- 0.22 0 1 cbr 500 ------- 0 0.0 2.0 4 4
r 0.224 0 1 cbr 500 ------- 0 0.0 2.0 0 0
+ 0.224 1 2 cbr 500 ------- 0 0.0 2.0 0 0
- 0.224 1 2 cbr 500 ------- 0 0.0 2.0 0 0
+ 0.225 0 1 cbr 500 ------- 0 0.0 2.0 5 5
- 0.225 0 1 cbr 500 ------- 0 0.0 2.0 5 5
r 0.229 0 1 cbr 500 ------- 0 0.0 2.0 1 1
+ 0.229 1 2 cbr 500 ------- 0 0.0 2.0 1 1
- 0.229333 1 2 cbr 500 ------- 0 0.0 2.0 1 1
+ 0.23 0 1 cbr 500 ------- 0 0.0 2.0 6 6
- 0.23 0 1 cbr 500 ------- 0 0.0 2.0 6 6
r 0.234 0 1 cbr 500 ------- 0 0.0 2.0 2 2
+ 0.234 1 2 cbr 500 ------- 0 0.0 2.0 2 2
- 0.234667 1 2 cbr 500 ------- 0 0.0 2.0 2 2
+ 0.235 0 1 cbr 500 ------- 0 0.0 2.0 7 7
- 0.235 0 1 cbr 500 ------- 0 0.0 2.0 7 7
r 0.239 0 1 cbr 500 ------- 0 0.0 2.0 3 3
+ 0.239 1 2 cbr 500 ------- 0 0.0 2.0 3 3
- 0.24 1 2 cbr 500 ------- 0 0.0 2.0 3 3
+ 0.24 0 1 cbr 500 ------- 0 0.0 2.0 8 8
- 0.24 0 1 cbr 500 ------- 0 0.0 2.0 8 8
r 0.244 0 1 cbr 500 ------- 0 0.0 2.0 4 4
+ 0.244 1 2 cbr 500 ------- 0 0.0 2.0 4 4
+ 0.245 0 1 cbr 500 ------- 0 0.0 2.0 9 9
- 0.245 0 1 cbr 500 ------- 0 0.0 2.0 9 9
- 0.245333 1 2 cbr 500 ------- 0 0.0 2.0 4 4
r 0.249 0 1 cbr 500 ------- 0 0.0 2.0 5 5
+ 0.249 1 2 cbr 500 ------- 0 0.0 2.0 5 5
r 0.249333 1 2 cbr 500 ------- 0 0.0 2.0 0 0
+ 0.25 0 1 cbr 500 ------- 0 0.0 2.0 10 10
- 0.25 0 1 cbr 500 ------- 0 0.0 2.0 10 10
- 0.250667 1 2 cbr 500 ------- 0 0.0 2.0 5 5
r 0.254 0 1 cbr 500 ------- 0 0.0 2.0 6 6
+ 0.254 1 2 cbr 500 ------- 0 0.0 2.0 6 6
r 0.254667 1 2 cbr 500 ------- 0 0.0 2.0 1 1
+ 0.255 0 1 cbr 500 ------- 0 0.0 2.0 11 11
- 0.255 0 1 cbr 500 ------- 0 0.0 2.0 11 11
- 0.256 1 2 cbr 500 ------- 0 0.0 2.0 6 6
r 0.259 0 1 cbr 500 ------- 0 0.0 2.0 7 7
+ 0.259 1 2 cbr 500 ------- 0 0.0 2.0 7 7
r 0.26 1 2 cbr 500 ------- 0 0.0 2.0 2 2
+ 0.26 0 1 cbr 500 ------- 0 0.0 2.0 12 12
- 0.26 0 1 cbr 500 ------- 0 0.0 2.0 12 12
- 0.261333 1 2 cbr 500 ------- 0 0.0 2.0 7 7
r 0.264 0 1 cbr 500 ------- 0 0.0 2.0 8 8
+ 0.264 1 2 cbr 500 ------- 0 0.0 2.0 8 8
+ 0.265 0 1 cbr 500 ------- 0 0.0 2.0 13 13
- 0.265 0 1 cbr 500 ------- 0 0.0 2.0 13 13
r 0.265333 1 2 cbr 500 ------- 0 0.0 2.0 3 3
- 0.266667 1 2 cbr 500 ------- 0 0.0 2.0 8 8
r 0.269 0 1 cbr 500 ------- 0 0.0 2.0 9 9
+ 0.269 1 2 cbr 500 ------- 0 0.0 2.0 9 9
+ 0.27 0 1 cbr 500 ------- 0 0.0 2.0 14 14
- 0.27 0 1 cbr 500 ------- 0 0.0 2.0 14 14
r 0.270667 1 2 cbr 500 ------- 0 0.0 2.0 4 4
- 0.272 1 2 cbr 500 ------- 0 0.0 2.0 9 9
r 0.274 0 1 cbr 500 ------- 0 0.0 2.0 10 10
+ 0.274 1 2 cbr 500 ------- 0 0.0 2.0 10 10
+ 0.275 0 1 cbr 500 ------- 0 0.0 2.0 15 15
- 0.275 0 1 cbr 500 ------- 0 0.0 2.0 15 15
r 0.276 1 2 cbr 500 ------- 0 0.0 2.0 5 5
- 0.277333 1 2 cbr 500 ------- 0 0.0 2.0 10 10
r 0.279 0 1 cbr 500 ------- 0 0.0 2.0 11 11
+ 0.279 1 2 cbr 500 ------- 0 0.0 2.0 11 11
+ 0.28 0 1 cbr 500 ------- 0 0.0 2.0 16 16
- 0.28 0 1 cbr 500 ------- 0 0.0 2.0 16 16
r 0.281333 1 2 cbr 500 ------- 0 0.0 2.0 6 6
- 0.282667 1 2 cbr 500 ------- 0 0.0 2.0 11 11
r 0.284 0 1 cbr 500 ------- 0 0.0 2.0 12 12
+ 0.284 1 2 cbr 500 ------- 0 0.0 2.0 12 12
+ 0.285 0 1 cbr 500 ------- 0 0.0 2.0 17 17
- 0.285 0 1 cbr 500 ------- 0 0.0 2.0 17 17
r 0.286667 1 2 cbr 500 ------- 0 0.0 2.0 7 7
- 0.288 1 2 cbr 500 ------- 0 0.0 2.0 12 12
r 0.289 0 1 cbr 500 ------- 0 0.0 2.0 13 13
+ 0.289 1 2 cbr 500 ------- 0 0.0 2.0 13 13
+ 0.29 0 1 cbr 500 ------- 0 0.0 2.0 18 18
- 0.29 0 1 cbr 500 ------- 0 0.0 2.0 18 18
r 0.292 1 2 cbr 500 ------- 0 0.0 2.0 8 8
- 0.293333 1 2 cbr 500 ------- 0 0.0 2.0 13 13
r 0.294 0 1 cbr 500 ------- 0 0.0 2.0 14 14
+ 0.294 1 2 cbr 500 ------- 0 0.0 2.0 14 14
+ 0.295 0 1 cbr 500 ------- 0 0.0 2.0 19 19
- 0.295 0 1 cbr 500 ------- 0 0.0 2.0 19 19
r 0.297333 1 2 cbr 500 ------- 0 0.0 2.0 9 9
- 0.298667 1 2 cbr 500 ------- 0 0.0 2.0 14 14
r 0.299 0 1 cbr 500 ------- 0 0.0 2.0 15 15
+ 0.299 1 2 cbr 500 ------- 0 0.0 2.0 15 15
+ 0.3 0 1 cbr 500 ------- 0 0.0 2.0 20 20
- 0.3 0 1 cbr 500 ------- 0 0.0 2.0 20 20
r 0.302667 1 2 cbr 500 ------- 0 0.0 2.0 10 10
r 0.304 0 1 cbr 500 ------- 0 0.0 2.0 16 16
+ 0.304 1 2 cbr 500 ------- 0 0.0 2.0 16 16
- 0.304 1 2 cbr 500 ------- 0 0.0 2.0 15 15
+ 0.305 0 1 cbr 500 ------- 0 0.0 2.0 21 21
- 0.305 0 1 cbr 500 ------- 0 0.0 2.0 21 21
r 0.308 1 2 cbr 500 ------- 0 0.0 2.0 11 11
r 0.309 0 1 cbr 500 ------- 0 0.0 2.0 17 17
+ 0.309 1 2 cbr 500 ------- 0 0.0 2.0 17 17
- 0.309333 1 2 cbr 500 ------- 0 0.0 2.0 16 16
+ 0.31 0 1 cbr 500 ------- 0 0.0 2.0 22 22
- 0.31 0 1 cbr 500 ------- 0 0.0 2.0 22 22
r 0.313333 1 2 cbr 500 ------- 0 0.0 2.0 12 12
r 0.314 0 1 cbr 500 ------- 0 0.0 2.0 18 18
+ 0.314 1 2 cbr 500 ------- 0 0.0 2.0 18 18
- 0.314667 1 2 cbr 500 ------- 0 0.0 2.0 17 17
+ 0.315 0 1 cbr 500 ------- 0 0.0 2.0 23 23
- 0.315 0 1 cbr 500 ------- 0 0.0 2.0 23 23
r 0.318667 1 2 cbr 500 ------- 0 0.0 2.0 13 13
r 0.319 0 1 cbr 500 ------- 0 0.0 2.0 19 19
+ 0.319 1 2 cbr 500 ------- 0 0.0 2.0 19 19
+ 0.32 0 1 cbr 500 ------- 0 0.0 2.0 24 24
- 0.32 0 1 cbr 500 ------- 0 0.0 2.0 24 24
- 0.32 1 2 cbr 500 ------- 0 0.0 2.0 18 18
r 0.324 0 1 cbr 500 ------- 0 0.0 2.0 20 20
+ 0.324 1 2 cbr 500 ------- 0 0.0 2.0 20 20
r 0.324 1 2 cbr 500 ------- 0 0.0 2.0 14 14
+ 0.325 0 1 cbr 500 ------- 0 0.0 2.0 25 25
- 0.325 0 1 cbr 500 ------- 0 0.0 2.0 25 25
- 0.325333 1 2 cbr 500 ------- 0 0.0 2.0 19 19
r 0.329 0 1 cbr 500 ------- 0 0.0 2.0 21 21
+ 0.329 1 2 cbr 500 ------- 0 0.0 2.0 21 21
r 0.329333 1 2 cbr 500 ------- 0 0.0 2.0 15 15
+ 0.33 0 1 cbr 500 ------- 0 0.0 2.0 26 26
- 0.33 0 1 cbr 500 ------- 0 0.0 2.0 26 26
- 0.330667 1 2 cbr 500 ------- 0 0.0 2.0 20 20
r 0.334 0 1 cbr 500 ------- 0 0.0 2.0 22 22
+ 0.334 1 2 cbr 500 ------- 0 0.0 2.0 22 22
r 0.334667 1 2 cbr 500 ------- 0 0.0 2.0 16 16
+ 0.335 0 1 cbr 500 ------- 0 0.0 2.0 27 27
- 0.335 0 1 cbr 500 ------- 0 0.0 2.0 27 27
- 0.336 1 2 cbr 500 ------- 0 0.0 2.0 21 21
r 0.339 0 1 cbr 500 ------- 0 0.0 2.0 23 23
+ 0.339 1 2 cbr 500 ------- 0 0.0 2.0 23 23
+ 0.34 0 1 cbr 500 ------- 0 0.0 2.0 28 28
- 0.34 0 1 cbr 500 ------- 0 0.0 2.0 28 28
r 0.34 1 2 cbr 500 ------- 0 0.0 2.0 17 17
- 0.341333 1 2 cbr 500 ------- 0 0.0 2.0 22 22
r 0.344 0 1 cbr 500 ------- 0 0.0 2.0 24 24
+ 0.344 1 2 cbr 500 ------- 0 0.0 2.0 24 24
+ 0.345 0 1 cbr 500 ------- 0 0.0 2.0 29 29
- 0.345 0 1 cbr 500 ------- 0 0.0 2.0 29 29
r 0.345333 1 2 cbr 500 ------- 0 0.0 2.0 18 18
- 0.346667 1 2 cbr 500 ------- 0 0.0 2.0 23 23
r 0.349 0 1 cbr 500 ------- 0 0.0 2.0 25 25
+ 0.349 1 2 cbr 500 ------- 0 0.0 2.0 25 25
+ 0.35 0 1 cbr 500 ------- 0 0.0 2.0 30 30
- 0.35 0 1 cbr 500 ------- 0 0.0 2.0 30 30
r 0.350667 1 2 cbr 500 ------- 0 0.0 2.0 19 19
- 0.352 1 2 cbr 500 ------- 0 0.0 2.0 24 24
r 0.354 0 1 cbr 500 ------- 0 0.0 2.0 26 26
+ 0.354 1 2 cbr 500 ------- 0 0.0 2.0 26 26
+ 0.355 0 1 cbr 500 ------- 0 0.0 2.0 31 31
- 0.355 0 1 cbr 500 ------- 0 0.0 2.0 31 31
r 0.356 1 2 cbr 500 ------- 0 0.0 2.0 20 20
- 0.357333 1 2 cbr 500 ------- 0 0.0 2.0 25 25
r 0.359 0 1 cbr 500 ------- 0 0.0 2.0 27 27
+ 0.359 1 2 cbr 500 ------- 0 0.0 2.0 27 27
+ 0.36 0 1 cbr 500 ------- 0 0.0 2.0 32 32
- 0.36 0 1 cbr 500 ------- 0 0.0 2.0 32 32
r 0.361333 1 2 cbr 500 ------- 0 0.0 2.0 21 21
- 0.362667 1 2 cbr 500 ------- 0 0.0 2.0 26 26
r 0.364 0 1 cbr 500 ------- 0 0.0 2.0 28 28
+ 0.364 1 2 cbr 500 ------- 0 0.0 2.0 28 28
+ 0.365 0 1 cbr 500 ------- 0 0.0 2.0 33 33
- 0.365 0 1 cbr 500 ------- 0 0.0 2.0 33 33
r 0.366667 1 2 cbr 500 ------- 0 0.0 2.0 22 22
- 0.368 1 2 cbr 500 ------- 0 0.0 2.0 27 27
r 0.369 0 1 cbr 500 ------- 0 0.0 2.0 29 29
+ 0.369 1 2 cbr 500 ------- 0 0.0 2.0 29 29
+ 0.37 0 1 cbr 500 ------- 0 0.0 2.0 34 34
- 0.37 0 1 cbr 500 ------- 0 0.0 2.0 34 34
r 0.372 1 2 cbr 500 ------- 0 0.0 2.0 23 23
- 0.373333 1 2 cbr 500 ------- 0 0.0 2.0 28 28
r 0.374 0 1 cbr 500 ------- 0 0.0 2.0 30 30
+ 0.374 1 2 cbr 500 ------- 0 0.0 2.0 30 30
+ 0.375 0 1 cbr 500 ------- 0 0.0 2.0 35 35
- 0.375 0 1 cbr 500 ------- 0 0.0 2.0 35 35
r 0.377333 1 2 cbr 500 ------- 0 0.0 2.0 24 24
- 0.378667 1 2 cbr 500 ------- 0 0.0 2.0 29 29
r 0.379 0 1 cbr 500 ------- 0 0.0 2.0 31 31
+ 0.379 1 2 cbr 500 ------- 0 0.0 2.0 31 31
+ 0.38 0 1 cbr 500 ------- 0 0.0 2.0 36 36
- 0.38 0 1 cbr 500 ------- 0 0.0 2.0 36 36
r 0.382667 1 2 cbr 500 ------- 0 0.0 2.0 25 25
r 0.384 0 1 cbr 500 ------- 0 0.0 2.0 32 32
+ 0.384 1 2 cbr 500 ------- 0 0.0 2.0 32 32
- 0.384 1 2 cbr 500 ------- 0 0.0 2.0 30 30
+ 0.385 0 1 cbr 500 ------- 0 0.0 2.0 37 37
- 0.385 0 1 cbr 500 ------- 0 0.0 2.0 37 37
r 0.388 1 2 cbr 500 ------- 0 0.0 2.0 26 26
r 0.389 0 1 cbr 500 ------- 0 0.0 2.0 33 33
+ 0.389 1 2 cbr 500 ------- 0 0.0 2.0 33 33
- 0.389333 1 2 cbr 500 ------- 0 0.0 2.0 31 31
+ 0.39 0 1 cbr 500 ------- 0 0.0 2.0 38 38
- 0.39 0 1 cbr 500 ------- 0 0.0 2.0 38 38
r 0.393333 1 2 cbr 500 ------- 0 0.0 2.0 27 27
r 0.394 0 1 cbr 500 ------- 0 0.0 2.0 34 34
+ 0.394 1 2 cbr 500 ------- 0 0.0 2.0 34 34
- 0.394667 1 2 cbr 500 ------- 0 0.0 2.0 32 32
+ 0.395 0 1 cbr 500 ------- 0 0.0 2.0 39 39
- 0.395 0 1 cbr 500 ------- 0 0.0 2.0 39 39
r 0.398667 1 2 cbr 500 ------- 0 0.0 2.0 28 28
r 0.399 0 1 cbr 500 ------- 0 0.0 2.0 35 35
+ 0.399 1 2 cbr 500 ------- 0 0.0 2.0 35 35
+ 0.4 0 1 cbr 500 ------- 0 0.0 2.0 40 40
- 0.4 0 1 cbr 500 ------- 0 0.0 2.0 40 40
- 0.4 1 2 cbr 500 ------- 0 0.0 2.0 33 33
r 0.404 0 1 cbr 500 ------- 0 0.0 2.0 36 36
+ 0.404 1 2 cbr 500 ------- 0 0.0 2.0 36 36
r 0.404 1 2 cbr 500 ------- 0 0.0 2.0 29 29
+ 0.405 0 1 cbr 500 ------- 0 0.0 2.0 41 41
- 0.405 0 1 cbr 500 ------- 0 0.0 2.0 41 41
- 0.405333 1 2 cbr 500 ------- 0 0.0 2.0 34 34
r 0.409 0 1 cbr 500 ------- 0 0.0 2.0 37 37
+ 0.409 1 2 cbr 500 ------- 0 0.0 2.0 37 37
r 0.409333 1 2 cbr 500 ------- 0 0.0 2.0 30 30
+ 0.41 0 1 cbr 500 ------- 0 0.0 2.0 42 42
- 0.41 0 1 cbr 500 ------- 0 0.0 2.0 42 42
- 0.410667 1 2 cbr 500 ------- 0 0.0 2.0 35 35
r 0.414 0 1 cbr 500 ------- 0 0.0 2.0 38 38
+ 0.414 1 2 cbr 500 ------- 0 0.0 2.0 38 38
r 0.414667 1 2 cbr 500 ------- 0 0.0 2.0 31 31
+ 0.415 0 1 cbr 500 ------- 0 0.0 2.0 43 43
- 0.415 0 1 cbr 500 ------- 0 0.0 2.0 43 43
- 0.416 1 2 cbr 500 ------- 0 0.0 2.0 36 36
r 0.419 0 1 cbr 500 ------- 0 0.0 2.0 39 39
+ 0.419 1 2 cbr 500 ------- 0 0.0 2.0 39 39
+ 0.42 0 1 cbr 500 ------- 0 0.0 2.0 44 44
- 0.42 0 1 cbr 500 ------- 0 0.0 2.0 44 44
r 0.42 1 2 cbr 500 ------- 0 0.0 2.0 32 32
- 0.421333 1 2 cbr 500 ------- 0 0.0 2.0 37 37
r 0.424 0 1 cbr 500 ------- 0 0.0 2.0 40 40
+ 0.424 1 2 cbr 500 ------- 0 0.0 2.0 40 40
+ 0.425 0 1 cbr 500 ------- 0 0.0 2.0 45 45
- 0.425 0 1 cbr 500 ------- 0 0.0 2.0 45 45
r 0.425333 1 2 cbr 500 ------- 0 0.0 2.0 33 33
- 0.426667 1 2 cbr 500 ------- 0 0.0 2.0 38 38
r 0.429 0 1 cbr 500 ------- 0 0.0 2.0 41 41
+ 0.429 1 2 cbr 500 ------- 0 0.0 2.0 41 41
+ 0.43 0 1 cbr 500 ------- 0 0.0 2.0 46 46
- 0.43 0 1 cbr 500 ------- 0 0.0 2.0 46 46
r 0.430667 1 2 cbr 500 ------- 0 0.0 2.0 34 34
- 0.432 1 2 cbr 500 ------- 0 0.0 2.0 39 39
r 0.434 0 1 cbr 500 ------- 0 0.0 2.0 42 42
+ 0.434 1 2 cbr 500 ------- 0 0.0 2.0 42 42
+ 0.435 0 1 cbr 500 ------- 0 0.0 2.0 47 47
- 0.435 0 1 cbr 500 ------- 0 0.0 2.0 47 47
r 0.436 1 2 cbr 500 ------- 0 0.0 2.0 35 35
- 0.437333 1 2 cbr 500 ------- 0 0.0 2.0 40 40
r 0.439 0 1 cbr 500 ------- 0 0.0 2.0 43 43
+ 0.439 1 2 cbr 500 ------- 0 0.0 2.0 43 43
+ 0.44 0 1 cbr 500 ------- 0 0.0 2.0 48 48
- 0.44 0 1 cbr 500 ------- 0 0.0 2.0 48 48
r 0.441333 1 2 cbr 500 ------- 0 0.0 2.0 36 36
- 0.442667 1 2 cbr 500 ------- 0 0.0 2.0 41 41
r 0.444 0 1 cbr 500 ------- 0 0.0 2.0 44 44
+ 0.444 1 2 cbr 500 ------- 0 0.0 2.0 44 44
+ 0.445 0 1 cbr 500 ------- 0 0.0 2.0 49 49
- 0.445 0 1 cbr 500 ------- 0 0.0 2.0 49 49
r 0.446667 1 2 cbr 500 ------- 0 0.0 2.0 37 37
- 0.448 1 2 cbr 500 ------- 0 0.0 2.0 42 42
r 0.449 0 1 cbr 500 ------- 0 0.0 2.0 45 45
+ 0.449 1 2 cbr 500 ------- 0 0.0 2.0 45 45
+ 0.45 0 1 cbr 500 ------- 0 0.0 2.0 50 50
- 0.45 0 1 cbr 500 ------- 0 0.0 2.0 50 50
r 0.452 1 2 cbr 500 ------- 0 0.0 2.0 38 38
- 0.453333 1 2 cbr 500 ------- 0 0.0 2.0 43 43
r 0.454 0 1 cbr 500 ------- 0 0.0 2.0 46 46
+ 0.454 1 2 cbr 500 ------- 0 0.0 2.0 46 46
+ 0.455 0 1 cbr 500 ------- 0 0.0 2.0 51 51
- 0.455 0 1 cbr 500 ------- 0 0.0 2.0 51 51
r 0.457333 1 2 cbr 500 ------- 0 0.0 2.0 39 39
- 0.458667 1 2 cbr 500 ------- 0 0.0 2.0 44 44
r 0.459 0 1 cbr 500 ------- 0 0.0 2.0 47 47
+ 0.459 1 2 cbr 500 ------- 0 0.0 2.0 47 47
+ 0.46 0 1 cbr 500 ------- 0 0.0 2.0 52 52
- 0.46 0 1 cbr 500 ------- 0 0.0 2.0 52 52
r 0.462667 1 2 cbr 500 ------- 0 0.0 2.0 40 40
r 0.464 0 1 cbr 500 ------- 0 0.0 2.0 48 48
+ 0.464 1 2 cbr 500 ------- 0 0.0 2.0 48 48
- 0.464 1 2 cbr 500 ------- 0 0.0 2.0 45 45
+ 0.465 0 1 cbr 500 ------- 0 0.0 2.0 53 53
- 0.465 0 1 cbr 500 ------- 0 0.0 2.0 53 53
r 0.468 1 2 cbr 500 ------- 0 0.0 2.0 41 41
r 0.469 0 1 cbr 500 ------- 0 0.0 2.0 49 49
+ 0.469 1 2 cbr 500 ------- 0 0.0 2.0 49 49
- 0.469333 1 2 cbr 500 ------- 0 0.0 2.0 46 46
+ 0.47 0 1 cbr 500 ------- 0 0.0 2.0 54 54
- 0.47 0 1 cbr 500 ------- 0 0.0 2.0 54 54
r 0.473333 1 2 cbr 500 ------- 0 0.0 2.0 42 42
r 0.474 0 1 cbr 500 ------- 0 0.0 2.0 50 50
+ 0.474 1 2 cbr 500 ------- 0 0.0 2.0 50 50
- 0.474667 1 2 cbr 500 ------- 0 0.0 2.0 47 47
+ 0.475 0 1 cbr 500 ------- 0 0.0 2.0 55 55
- 0.475 0 1 cbr 500 ------- 0 0.0 2.0 55 55
r 0.478667 1 2 cbr 500 ------- 0 0.0 2.0 43 43
r 0.479 0 1 cbr 500 ------- 0 0.0 2.0 51 51
+ 0.479 1 2 cbr 500 ------- 0 0.0 2.0 51 51
+ 0.48 0 1 cbr 500 ------- 0 0.0 2.0 56 56
- 0.48 0 1 cbr 500 ------- 0 0.0 2.0 56 56
- 0.48 1 2 cbr 500 ------- 0 0.0 2.0 48 48
r 0.484 0 1 cbr 500 ------- 0 0.0 2.0 52 52
+ 0.484 1 2 cbr 500 ------- 0 0.0 2.0 52 52
r 0.484 1 2 cbr 500 ------- 0 0.0 2.0 44 44
+ 0.485 0 1 cbr 500 ------- 0 0.0 2.0 57 57
- 0.485 0 1 cbr 500 ------- 0 0.0 2.0 57 57
- 0.485333 1 2 cbr 500 ------- 0 0.0 2.0 49 49
r 0.489 0 1 cbr 500 ------- 0 0.0 2.0 53 53
+ 0.489 1 2 cbr 500 ------- 0 0.0 2.0 53 53
r 0.489333 1 2 cbr 500 ------- 0 0.0 2.0 45 45
+ 0.49 0 1 cbr 500 ------- 0 0.0 2.0 58 58
- 0.49 0 1 cbr 500 ------- 0 0.0 2.0 58 58
- 0.490667 1 2 cbr 500 ------- 0 0.0 2.0 50 50
r 0.494 0 1 cbr 500 ------- 0 0.0 2.0 54 54
+ 0.494 1 2 cbr 500 ------- 0 0.0 2.0 54 54
r 0.494667 1 2 cbr 500 ------- 0 0.0 2.0 46 46
+ 0.495 0 1 cbr 500 ------- 0 0.0 2.0 59 59
- 0.495 0 1 cbr 500 ------- 0 0.0 2.0 59 59
- 0.496 1 2 cbr 500 ------- 0 0.0 2.0 51 51
r 0.499 0 1 cbr 500 ------- 0 0.0 2.0 55 55
+ 0.499 1 2 cbr 500 ------- 0 0.0 2.0 55 55
+ 0.5 0 1 cbr 500 ------- 0 0.0 2.0 60 60
- 0.5 0 1 cbr 500 ------- 0 0.0 2.0 60 60
r 0.5 1 2 cbr 500 ------- 0 0.0 2.0 47 47
- 0.501333 1 2 cbr 500 ------- 0 0.0 2.0 52 52
r 0.504 0 1 cbr 500 ------- 0 0.0 2.0 56 56
+ 0.504 1 2 cbr 500 ------- 0 0.0 2.0 56 56
+ 0.505 0 1 cbr 500 ------- 0 0.0 2.0 61 61
- 0.505 0 1 cbr 500 ------- 0 0.0 2.0 61 61
r 0.505333 1 2 cbr 500 ------- 0 0.0 2.0 48 48
- 0.506667 1 2 cbr 500 ------- 0 0.0 2.0 53 53
r 0.509 0 1 cbr 500 ------- 0 0.0 2.0 57 57
+ 0.509 1 2 cbr 500 ------- 0 0.0 2.0 57 57
+ 0.51 0 1 cbr 500 ------- 0 0.0 2.0 62 62
- 0.51 0 1 cbr 500 ------- 0 0.0 2.0 62 62
r 0.510667 1 2 cbr 500 ------- 0 0.0 2.0 49 49
- 0.512 1 2 cbr 500 ------- 0 0.0 2.0 54 54
r 0.514 0 1 cbr 500 ------- 0 0.0 2.0 58 58
+ 0.514 1 2 cbr 500 ------- 0 0.0 2.0 58 58
+ 0.515 0 1 cbr 500 ------- 0 0.0 2.0 63 63
- 0.515 0 1 cbr 500 ------- 0 0.0 2.0 63 63
r 0.516 1 2 cbr 500 ------- 0 0.0 2.0 50 50
- 0.517333 1 2 cbr 500 ------- 0 0.0 2.0 55 55
r 0.519 0 1 cbr 500 ------- 0 0.0 2.0 59 59
+ 0.519 1 2 cbr 500 ------- 0 0.0 2.0 59 59
+ 0.52 0 1 cbr 500 ------- 0 0.0 2.0 64 64
- 0.52 0 1 cbr 500 ------- 0 0.0 2.0 64 64
r 0.521333 1 2 cbr 500 ------- 0 0.0 2.0 51 51
- 0.522667 1 2 cbr 500 ------- 0 0.0 2.0 56 56
r 0.524 0 1 cbr 500 ------- 0 0.0 2.0 60 60
+ 0.524 1 2 cbr 500 ------- 0 0.0 2.0 60 60
+ 0.525 0 1 cbr 500 ------- 0 0.0 2.0 65 65
- 0.525 0 1 cbr 500 ------- 0 0.0 2.0 65 65
r 0.526667 1 2 cbr 500 ------- 0 0.0 2.0 52 52
- 0.528 1 2 cbr 500 ------- 0 0.0 2.0 57 57
r 0.529 0 1 cbr 500 ------- 0 0.0 2.0 61 61
+ 0.529 1 2 cbr 500 ------- 0 0.0 2.0 61 61
+ 0.53 0 1 cbr 500 ------- 0 0.0 2.0 66 66
- 0.53 0 1 cbr 500 ------- 0 0.0 2.0 66 66
r 0.532 1 2 cbr 500 ------- 0 0.0 2.0 53 53
- 0.533333 1 2 cbr 500 ------- 0 0.0 2.0 58 58
r 0.534 0 1 cbr 500 ------- 0 0.0 2.0 62 62
+ 0.534 1 2 cbr 500 ------- 0 0.0 2.0 62 62
+ 0.535 0 1 cbr 500 ------- 0 0.0 2.0 67 67
- 0.535 0 1 cbr 500 ------- 0 0.0 2.0 67 67
r 0.537333 1 2 cbr 500 ------- 0 0.0 2.0 54 54
- 0.538667 1 2 cbr 500 ------- 0 0.0 2.0 59 59
r 0.539 0 1 cbr 500 ------- 0 0.0 2.0 63 63
+ 0.539 1 2 cbr 500 ------- 0 0.0 2.0 63 63
+ 0.54 0 1 cbr 500 ------- 0 0.0 2.0 68 68
- 0.54 0 1 cbr 500 ------- 0 0.0 2.0 68 68
r 0.542667 1 2 cbr 500 ------- 0 0.0 2.0 55 55
r 0.544 0 1 cbr 500 ------- 0 0.0 2.0 64 64
+ 0.544 1 2 cbr 500 ------- 0 0.0 2.0 64 64
d 0.544 1 2 cbr 500 ------- 0 0.0 2.0 64 64
- 0.544 1 2 cbr 500 ------- 0 0.0 2.0 60 60
+ 0.545 0 1 cbr 500 ------- 0 0.0 2.0 69 69
- 0.545 0 1 cbr 500 ------- 0 0.0 2.0 69 69
r 0.548 1 2 cbr 500 ------- 0 0.0 2.0 56 56
r 0.549 0 1 cbr 500 ------- 0 0.0 2.0 65 65
+ 0.549 1 2 cbr 500 ------- 0 0.0 2.0 65 65
- 0.549333 1 2 cbr 500 ------- 0 0.0 2.0 61 61
+ 0.55 0 1 cbr 500 ------- 0 0.0 2.0 70 70
- 0.55 0 1 cbr 500 ------- 0 0.0 2.0 70 70
r 0.553333 1 2 cbr 500 ------- 0 0.0 2.0 57 57
r 0.554 0 1 cbr 500 ------- 0 0.0 2.0 66 66
+ 0.554 1 2 cbr 500 ------- 0 0.0 2.0 66 66
- 0.554667 1 2 cbr 500 ------- 0 0.0 2.0 62 62
+ 0.555 0 1 cbr 500 ------- 0 0.0 2.0 71 71
- 0.555 0 1 cbr 500 ------- 0 0.0 2.0 71 71
r 0.558667 1 2 cbr 500 ------- 0 0.0 2.0 58 58
r 0.559 0 1 cbr 500 ------- 0 0.0 2.0 67 67
+ 0.559 1 2 cbr 500 ------- 0 0.0 2.0 67 67
+ 0.56 0 1 cbr 500 ------- 0 0.0 2.0 72 72
- 0.56 0 1 cbr 500 ------- 0 0.0 2.0 72 72
- 0.56 1 2 cbr 500 ------- 0 0.0 2.0 63 63
r 0.564 0 1 cbr 500 ------- 0 0.0 2.0 68 68
+ 0.564 1 2 cbr 500 ------- 0 0.0 2.0 68 68
r 0.564 1 2 cbr 500 ------- 0 0.0 2.0 59 59
+ 0.565 0 1 cbr 500 ------- 0 0.0 2.0 73 73
- 0.565 0 1 cbr 500 ------- 0 0.0 2.0 73 73
- 0.565333 1 2 cbr 500 ------- 0 0.0 2.0 65 65
r 0.569 0 1 cbr 500 ------- 0 0.0 2.0 69 69
+ 0.569 1 2 cbr 500 ------- 0 0.0 2.0 69 69
r 0.569333 1 2 cbr 500 ------- 0 0.0 2.0 60 60
+ 0.57 0 1 cbr 500 ------- 0 0.0 2.0 74 74
- 0.57 0 1 cbr 500 ------- 0 0.0 2.0 74 74
- 0.570667 1 2 cbr 500 ------- 0 0.0 2.0 66 66
r 0.574 0 1 cbr 500 ------- 0 0.0 2.0 70 70
+ 0.574 1 2 cbr 500 ------- 0 0.0 2.0 70 70
r 0.574667 1 2 cbr 500 ------- 0 0.0 2.0 61 61
+ 0.575 0 1 cbr 500 ------- 0 0.0 2.0 75 75
- 0.575 0 1 cbr 500 ------- 0 0.0 2.0 75 75
- 0.576 1 2 cbr 500 ------- 0 0.0 2.0 67 67
r 0.579 0 1 cbr 500 ------- 0 0.0 2.0 71 71
+ 0.579 1 2 cbr 500 ------- 0 0.0 2.0 71 71
+ 0.58 0 1 cbr 500 ------- 0 0.0 2.0 76 76
- 0.58 0 1 cbr 500 ------- 0 0.0 2.0 76 76
r 0.58 1 2 cbr 500 ------- 0 0.0 2.0 62 62
- 0.581333 1 2 cbr 500 ------- 0 0.0 2.0 68 68
r 0.584 0 1 cbr 500 ------- 0 0.0 2.0 72 72
+ 0.584 1 2 cbr 500 ------- 0 0.0 2.0 72 72
+ 0.585 0 1 cbr 500 ------- 0 0.0 2.0 77 77
- 0.585 0 1 cbr 500 ------- 0 0.0 2.0 77 77
r 0.585333 1 2 cbr 500 ------- 0 0.0 2.0 63 63
- 0.586667 1 2 cbr 500 ------- 0 0.0 2.0 69 69
r 0.589 0 1 cbr 500 ------- 0 0.0 2.0 73 73
+ 0.589 1 2 cbr 500 ------- 0 0.0 2.0 73 73
+ 0.59 0 1 cbr 500 ------- 0 0.0 2.0 78 78
- 0.59 0 1 cbr 500 ------- 0 0.0 2.0 78 78
r 0.590667 1 2 cbr 500 ------- 0 0.0 2.0 65 65
- 0.592 1 2 cbr 500 ------- 0 0.0 2.0 70 70
r 0.594 0 1 cbr 500 ------- 0 0.0 2.0 74 74
+ 0.594 1 2 cbr 500 ------- 0 0.0 2.0 74 74
+ 0.595 0 1 cbr 500 ------- 0 0.0 2.0 79 79
- 0.595 0 1 cbr 500 ------- 0 0.0 2.0 79 79
r 0.596 1 2 cbr 500 ------- 0 0.0 2.0 66 66
- 0.597333 1 2 cbr 500 ------- 0 0.0 2.0 71 71
r 0.599 0 1 cbr 500 ------- 0 0.0 2.0 75 75
+ 0.599 1 2 cbr 500 ------- 0 0.0 2.0 75 75
+ 0.6 0 1 cbr 500 ------- 0 0.0 2.0 80 80
- 0.6 0 1 cbr 500 ------- 0 0.0 2.0 80 80
r 0.601333 1 2 cbr 500 ------- 0 0.0 2.0 67 67
- 0.602667 1 2 cbr 500 ------- 0 0.0 2.0 72 72
r 0.604 0 1 cbr 500 ------- 0 0.0 2.0 76 76
+ 0.604 1 2 cbr 500 ------- 0 0.0 2.0 76 76
+ 0.605 0 1 cbr 500 ------- 0 0.0 2.0 81 81
- 0.605 0 1 cbr 500 ------- 0 0.0 2.0 81 81
r 0.606667 1 2 cbr 500 ------- 0 0.0 2.0 68 68
- 0.608 1 2 cbr 500 ------- 0 0.0 2.0 73 73
r 0.609 0 1 cbr 500 ------- 0 0.0 2.0 77 77
+ 0.609 1 2 cbr 500 ------- 0 0.0 2.0 77 77
+ 0.61 0 1 cbr 500 ------- 0 0.0 2.0 82 82
- 0.61 0 1 cbr 500 ------- 0 0.0 2.0 82 82
r 0.612 1 2 cbr 500 ------- 0 0.0 2.0 69 69
- 0.613333 1 2 cbr 500 ------- 0 0.0 2.0 74 74
r 0.614 0 1 cbr 500 ------- 0 0.0 2.0 78 78
+ 0.614 1 2 cbr 500 ------- 0 0.0 2.0 78 78
+ 0.615 0 1 cbr 500 ------- 0 0.0 2.0 83 83
- 0.615 0 1 cbr 500 ------- 0 0.0 2.0 83 83
r 0.617333 1 2 cbr 500 ------- 0 0.0 2.0 70 70
- 0.618667 1 2 cbr 500 ------- 0 0.0 2.0 75 75
r 0.619 0 1 cbr 500 ------- 0 0.0 2.0 79 79
+ 0.619 1 2 cbr 500 ------- 0 0.0 2.0 79 79
+ 0.62 0 1 cbr 500 ------- 0 0.0 2.0 84 84
- 0.62 0 1 cbr 500 ------- 0 0.0 2.0 84 84
r 0.622667 1 2 cbr 500 ------- 0 0.0 2.0 71 71
r 0.624 0 1 cbr 500 ------- 0 0.0 2.0 80 80
+ 0.624 1 2 cbr 500 ------- 0 0.0 2.0 80 80
d 0.624 1 2 cbr 500 ------- 0 0.0 2.0 80 80
- 0.624 1 2 cbr 500 ------- 0 0.0 2.0 76 76
+ 0.625 0 1 cbr 500 ------- 0 0.0 2.0 85 85
- 0.625 0 1 cbr 500 ------- 0 0.0 2.0 85 85
r 0.628 1 2 cbr 500 ------- 0 0.0 2.0 72 72
r 0.629 0 1 cbr 500 ------- 0 0.0 2.0 81 81
+ 0.629 1 2 cbr 500 ------- 0 0.0 2.0 81 81
- 0.629333 1 2 cbr 500 ------- 0 0.0 2.0 77 77
+ 0.63 0 1 cbr 500 ------- 0 0.0 2.0 86 86
- 0.63 0 1 cbr 500 ------- 0 0.0 2.0 86 86
r 0.633333 1 2 cbr 500 ------- 0 0.0 2.0 73 73
r 0.634 0 1 cbr 500 ------- 0 0.0 2.0 82 82
+ 0.634 1 2 cbr 500 ------- 0 0.0 2.0 82 82
- 0.634667 1 2 cbr 500 ------- 0 0.0 2.0 78 78
+ 0.635 0 1 cbr 500 ------- 0 0.0 2.0 87 87
- 0.635 0 1 cbr 500 ------- 0 0.0 2.0 87 87
r 0.638667 1 2 cbr 500 ------- 0 0.0 2.0 74 74
r 0.639 0 1 cbr 500 ------- 0 0.0 2.0 83 83
+ 0.639 1 2 cbr 500 ------- 0 0.0 2.0 83 83
- 0.64 1 2 cbr 500 ------- 0 0.0 2.0 79 79
+ 0.64 0 1 cbr 500 ------- 0 0.0 2.0 88 88
- 0.64 0 1 cbr 500 ------- 0 0.0 2.0 88 88
r 0.644 1 2 cbr 500 ------- 0 0.0 2.0 75 75
r 0.644 0 1 cbr 500 ------- 0 0.0 2.0 84 84
+ 0.644 1 2 cbr 500 ------- 0 0.0 2.0 84 84
+ 0.645 0 1 cbr 500 ------- 0 0.0 2.0 89 89
- 0.645 0 1 cbr 500 ------- 0 0.0 2.0 89 89
- 0.645333 1 2 cbr 500 ------- 0 0.0 2.0 81 81
r 0.649 0 1 cbr 500 ------- 0 0.0 2.0 85 85
+ 0.649 1 2 cbr 500 ------- 0 0.0 2.0 85 85
r 0.649333 1 2 cbr 500 ------- 0 0.0 2.0 76 76
+ 0.65 0 1 cbr 500 ------- 0 0.0 2.0 90 90
- 0.65 0 1 cbr 500 ------- 0 0.0 2.0 90 90
- 0.650667 1 2 cbr 500 ------- 0 0.0 2.0 82 82
r 0.654 0 1 cbr 500 ------- 0 0.0 2.0 86 86
+ 0.654 1 2 cbr 500 ------- 0 0.0 2.0 86 86
r 0.654667 1 2 cbr 500 ------- 0 0.0 2.0 77 77
+ 0.655 0 1 cbr 500 ------- 0 0.0 2.0 91 91
- 0.655 0 1 cbr 500 ------- 0 0.0 2.0 91 91
- 0.656 1 2 cbr 500 ------- 0 0.0 2.0 83 83
r 0.659 0 1 cbr 500 ------- 0 0.0 2.0 87 87
+ 0.659 1 2 cbr 500 ------- 0 0.0 2.0 87 87
r 0.66 1 2 cbr 500 ------- 0 0.0 2.0 78 78
+ 0.66 0 1 cbr 500 ------- 0 0.0 2.0 92 92
- 0.66 0 1 cbr 500 ------- 0 0.0 2.0 92 92
- 0.661333 1 2 cbr 500 ------- 0 0.0 2.0 84 84
r 0.664 0 1 cbr 500 ------- 0 0.0 2.0 88 88
+ 0.664 1 2 cbr 500 ------- 0 0.0 2.0 88 88
+ 0.665 0 1 cbr 500 ------- 0 0.0 2.0 93 93
- 0.665 0 1 cbr 500 ------- 0 0.0 2.0 93 93
r 0.665333 1 2 cbr 500 ------- 0 0.0 2.0 79 79
- 0.666667 1 2 cbr 500 ------- 0 0.0 2.0 85 85
r 0.669 0 1 cbr 500 ------- 0 0.0 2.0 89 89
+ 0.669 1 2 cbr 500 ------- 0 0.0 2.0 89 89
+ 0.67 0 1 cbr 500 ------- 0 0.0 2.0 94 94
- 0.67 0 1 cbr 500 ------- 0 0.0 2.0 94 94
r 0.670667 1 2 cbr 500 ------- 0 0.0 2.0 81 81
- 0.672 1 2 cbr 500 ------- 0 0.0 2.0 86 86
r 0.674 0 1 cbr 500 ------- 0 0.0 2.0 90 90
+ 0.674 1 2 cbr 500 ------- 0 0.0 2.0 90 90
+ 0.675 0 1 cbr 500 ------- 0 0.0 2.0 95 95
- 0.675 0 1 cbr 500 ------- 0 0.0 2.0 95 95
r 0.676 1 2 cbr 500 ------- 0 0.0 2.0 82 82
- 0.677333 1 2 cbr 500 ------- 0 0.0 2.0 87 87
r 0.679 0 1 cbr 500 ------- 0 0.0 2.0 91 91
+ 0.679 1 2 cbr 500 ------- 0 0.0 2.0 91 91
+ 0.68 0 1 cbr 500 ------- 0 0.0 2.0 96 96
- 0.68 0 1 cbr 500 ------- 0 0.0 2.0 96 96
r 0.681333 1 2 cbr 500 ------- 0 0.0 2.0 83 83
- 0.682667 1 2 cbr 500 ------- 0 0.0 2.0 88 88
r 0.684 0 1 cbr 500 ------- 0 0.0 2.0 92 92
+ 0.684 1 2 cbr 500 ------- 0 0.0 2.0 92 92
+ 0.685 0 1 cbr 500 ------- 0 0.0 2.0 97 97
- 0.685 0 1 cbr 500 ------- 0 0.0 2.0 97 97
r 0.686667 1 2 cbr 500 ------- 0 0.0 2.0 84 84
- 0.688 1 2 cbr 500 ------- 0 0.0 2.0 89 89
r 0.689 0 1 cbr 500 ------- 0 0.0 2.0 93 93
+ 0.689 1 2 cbr 500 ------- 0 0.0 2.0 93 93
+ 0.69 0 1 cbr 500 ------- 0 0.0 2.0 98 98
- 0.69 0 1 cbr 500 ------- 0 0.0 2.0 98 98
r 0.692 1 2 cbr 500 ------- 0 0.0 2.0 85 85
- 0.693333 1 2 cbr 500 ------- 0 0.0 2.0 90 90
r 0.694 0 1 cbr 500 ------- 0 0.0 2.0 94 94
+ 0.694 1 2 cbr 500 ------- 0 0.0 2.0 94 94
+ 0.695 0 1 cbr 500 ------- 0 0.0 2.0 99 99
- 0.695 0 1 cbr 500 ------- 0 0.0 2.0 99 99
r 0.697333 1 2 cbr 500 ------- 0 0.0 2.0 86 86
- 0.698667 1 2 cbr 500 ------- 0 0.0 2.0 91 91
r 0.699 0 1 cbr 500 ------- 0 0.0 2.0 95 95
+ 0.699 1 2 cbr 500 ------- 0 0.0 2.0 95 95
+ 0.7 0 1 cbr 500 ------- 0 0.0 2.0 100 100
- 0.7 0 1 cbr 500 ------- 0 0.0 2.0 100 100
r 0.702667 1 2 cbr 500 ------- 0 0.0 2.0 87 87
- 0.704 1 2 cbr 500 ------- 0 0.0 2.0 92 92
r 0.704 0 1 cbr 500 ------- 0 0.0 2.0 96 96
+ 0.704 1 2 cbr 500 ------- 0 0.0 2.0 96 96
+ 0.705 0 1 cbr 500 ------- 0 0.0 2.0 101 101
- 0.705 0 1 cbr 500 ------- 0 0.0 2.0 101 101
r 0.708 1 2 cbr 500 ------- 0 0.0 2.0 88 88
r 0.709 0 1 cbr 500 ------- 0 0.0 2.0 97 97
+ 0.709 1 2 cbr 500 ------- 0 0.0 2.0 97 97
d 0.709 1 2 cbr 500 ------- 0 0.0 2.0 97 97
- 0.709333 1 2 cbr 500 ------- 0 0.0 2.0 93 93
+ 0.71 0 1 cbr 500 ------- 0 0.0 2.0 102 102
- 0.71 0 1 cbr 500 ------- 0 0.0 2.0 102 102
r 0.713333 1 2 cbr 500 ------- 0 0.0 2.0 89 89
r 0.714 0 1 cbr 500 ------- 0 0.0 2.0 98 98
+ 0.714 1 2 cbr 500 ------- 0 0.0 2.0 98 98
- 0.714667 1 2 cbr 500 ------- 0 0.0 2.0 94 94
+ 0.715 0 1 cbr 500 ------- 0 0.0 2.0 103 103
- 0.715 0 1 cbr 500 ------- 0 0.0 2.0 103 103
r 0.718667 1 2 cbr 500 ------- 0 0.0 2.0 90 90
r 0.719 0 1 cbr 500 ------- 0 0.0 2.0 99 99
+ 0.719 1 2 cbr 500 ------- 0 0.0 2.0 99 99
- 0.72 1 2 cbr 500 ------- 0 0.0 2.0 95 95
+ 0.72 0 1 cbr 500 ------- 0 0.0 2.0 104 104
- 0.72 0 1 cbr 500 ------- 0 0.0 2.0 104 104
r 0.724 1 2 cbr 500 ------- 0 0.0 2.0 91 91
r 0.724 0 1 cbr 500 ------- 0 0.0 2.0 100 100
+ 0.724 1 2 cbr 500 ------- 0 0.0 2.0 100 100
+ 0.725 0 1 cbr 500 ------- 0 0.0 2.0 105 105
- 0.725 0 1 cbr 500 ------- 0 0.0 2.0 105 105
- 0.725333 1 2 cbr 500 ------- 0 0.0 2.0 96 96
r 0.729 0 1 cbr 500 ------- 0 0.0 2.0 101 101
+ 0.729 1 2 cbr 500 ------- 0 0.0 2.0 101 101
r 0.729333 1 2 cbr 500 ------- 0 0.0 2.0 92 92
+ 0.73 0 1 cbr 500 ------- 0 0.0 2.0 106 106
- 0.73 0 1 cbr 500 ------- 0 0.0 2.0 106 106
- 0.730667 1 2 cbr 500 ------- 0 0.0 2.0 98 98
r 0.734 0 1 cbr 500 ------- 0 0.0 2.0 102 102
+ 0.734 1 2 cbr 500 ------- 0 0.0 2.0 102 102
r 0.734667 1 2 cbr 500 ------- 0 0.0 2.0 93 93
+ 0.735 0 1 cbr 500 ------- 0 0.0 2.0 107 107
- 0.735 0 1 cbr 500 ------- 0 0.0 2.0 107 107
- 0.736 1 2 cbr 500 ------- 0 0.0 2.0 99 99
r 0.739 0 1 cbr 500 ------- 0 0.0 2.0 103 103
+ 0.739 1 2 cbr 500 ------- 0 0.0 2.0 103 103
r 0.74 1 2 cbr 500 ------- 0 0.0 2.0 94 94
+ 0.74 0 1 cbr 500 ------- 0 0.0 2.0 108 108
- 0.74 0 1 cbr 500 ------- 0 0.0 2.0 108 108
- 0.741333 1 2 cbr 500 ------- 0 0.0 2.0 100 100
r 0.744 0 1 cbr 500 ------- 0 0.0 2.0 104 104
+ 0.744 1 2 cbr 500 ------- 0 0.0 2.0 104 104
+ 0.745 0 1 cbr 500 ------- 0 0.0 2.0 109 109
- 0.745 0 1 cbr 500 ------- 0 0.0 2.0 109 109
r 0.745333 1 2 cbr 500 ------- 0 0.0 2.0 95 95
- 0.746667 1 2 cbr 500 ------- 0 0.0 2.0 101 101
r 0.749 0 1 cbr 500 ------- 0 0.0 2.0 105 105
+ 0.749 1 2 cbr 500 ------- 0 0.0 2.0 105 105
+ 0.75 0 1 cbr 500 ------- 0 0.0 2.0 110 110
- 0.75 0 1 cbr 500 ------- 0 0.0 2.0 110 110
r 0.750667 1 2 cbr 500 ------- 0 0.0 2.0 96 96
- 0.752 1 2 cbr 500 ------- 0 0.0 2.0 102 102
r 0.754 0 1 cbr 500 ------- 0 0.0 2.0 106 106
+ 0.754 1 2 cbr 500 ------- 0 0.0 2.0 106 106
+ 0.755 0 1 cbr 500 ------- 0 0.0 2.0 111 111
- 0.755 0 1 cbr 500 ------- 0 0.0 2.0 111 111
r 0.756 1 2 cbr 500 ------- 0 0.0 2.0 98 98
- 0.757333 1 2 cbr 500 ------- 0 0.0 2.0 103 103
r 0.759 0 1 cbr 500 ------- 0 0.0 2.0 107 107
+ 0.759 1 2 cbr 500 ------- 0 0.0 2.0 107 107
+ 0.76 0 1 cbr 500 ------- 0 0.0 2.0 112 112
- 0.76 0 1 cbr 500 ------- 0 0.0 2.0 112 112
r 0.761333 1 2 cbr 500 ------- 0 0.0 2.0 99 99
- 0.762667 1 2 cbr 500 ------- 0 0.0 2.0 104 104
r 0.764 0 1 cbr 500 ------- 0 0.0 2.0 108 108
+ 0.764 1 2 cbr 500 ------- 0 0.0 2.0 108 108
+ 0.765 0 1 cbr 500 ------- 0 0.0 2.0 113 113
- 0.765 0 1 cbr 500 ------- 0 0.0 2.0 113 113
r 0.766667 1 2 cbr 500 ------- 0 0.0 2.0 100 100
- 0.768 1 2 cbr 500 ------- 0 0.0 2.0 105 105
r 0.769 0 1 cbr 500 ------- 0 0.0 2.0 109 109
+ 0.769 1 2 cbr 500 ------- 0 0.0 2.0 109 109
+ 0.77 0 1 cbr 500 ------- 0 0.0 2.0 114 114
- 0.77 0 1 cbr 500 ------- 0 0.0 2.0 114 114
r 0.772 1 2 cbr 500 ------- 0 0.0 2.0 101 101
- 0.773333 1 2 cbr 500 ------- 0 0.0 2.0 106 106
r 0.774 0 1 cbr 500 ------- 0 0.0 2.0 110 110
+ 0.774 1 2 cbr 500 ------- 0 0.0 2.0 110 110
+ 0.775 0 1 cbr 500 ------- 0 0.0 2.0 115 115
- 0.775 0 1 cbr 500 ------- 0 0.0 2.0 115 115
r 0.777333 1 2 cbr 500 ------- 0 0.0 2.0 102 102
- 0.778667 1 2 cbr 500 ------- 0 0.0 2.0 107 107
r 0.779 0 1 cbr 500 ------- 0 0.0 2.0 111 111
+ 0.779 1 2 cbr 500 ------- 0 0.0 2.0 111 111
+ 0.78 0 1 cbr 500 ------- 0 0.0 2.0 116 116
- 0.78 0 1 cbr 500 ------- 0 0.0 2.0 116 116
r 0.782667 1 2 cbr 500 ------- 0 0.0 2.0 103 103
- 0.784 1 2 cbr 500 ------- 0 0.0 2.0 108 108
r 0.784 0 1 cbr 500 ------- 0 0.0 2.0 112 112
+ 0.784 1 2 cbr 500 ------- 0 0.0 2.0 112 112
+ 0.785 0 1 cbr 500 ------- 0 0.0 2.0 117 117
- 0.785 0 1 cbr 500 ------- 0 0.0 2.0 117 117
r 0.788 1 2 cbr 500 ------- 0 0.0 2.0 104 104
r 0.789 0 1 cbr 500 ------- 0 0.0 2.0 113 113