+ 0.1 1 0 ping 64 ------- 0 1.0 4.0 -1 0
- 0.1 1 0 ping 64 ------- 0 1.0 4.0 -1 0
r 0.12224 1 0 ping 64 ------- 0 1.0 4.0 -1 0
+ 0.12224 0 4 ping 64 ------- 0 1.0 4.0 -1 0
- 0.12224 0 4 ping 64 ------- 0 1.0 4.0 -1 0
r 0.14248 0 4 ping 64 ------- 0 1.0 4.0 -1 0
+ 0.14248 4 0 ping 64 ------- 0 4.0 1.0 -1 1
- 0.14248 4 0 ping 64 ------- 0 4.0 1.0 -1 1
r 0.16272 4 0 ping 64 ------- 0 4.0 1.0 -1 1
+ 0.16272 0 1 ping 64 ------- 0 4.0 1.0 -1 1
- 0.16272 0 1 ping 64 ------- 0 4.0 1.0 -1 1
r 0.18496 0 1 ping 64 ------- 0 4.0 1.0 -1 1
+ 0.3 2 0 ping 64 ------- 0 2.0 5.0 -1 2
- 0.3 2 0 ping 64 ------- 0 2.0 5.0 -1 2
r 0.32024 2 0 ping 64 ------- 0 2.0 5.0 -1 2
+ 0.32024 0 5 ping 64 ------- 0 2.0 5.0 -1 2
- 0.32024 0 5 ping 64 ------- 0 2.0 5.0 -1 2
r 0.34048 0 5 ping 64 ------- 0 2.0 5.0 -1 2
+ 0.34048 5 0 ping 64 ------- 0 5.0 2.0 -1 3
- 0.34048 5 0 ping 64 ------- 0 5.0 2.0 -1 3
r 0.36072 5 0 ping 64 ------- 0 5.0 2.0 -1 3
+ 0.36072 0 2 ping 64 ------- 0 5.0 2.0 -1 3
- 0.36072 0 2 ping 64 ------- 0 5.0 2.0 -1 3
r 0.38096 0 2 ping 64 ------- 0 5.0 2.0 -1 3
+ 0.5 3 0 ping 64 ------- 0 3.0 6.0 -1 4
- 0.5 3 0 ping 64 ------- 0 3.0 6.0 -1 4
r 0.52024 3 0 ping 64 ------- 0 3.0 6.0 -1 4
+ 0.52024 0 6 ping 64 ------- 0 3.0 6.0 -1 4
- 0.52024 0 6 ping 64 ------- 0 3.0 6.0 -1 4
r 0.54148 0 6 ping 64 ------- 0 3.0 6.0 -1 4
+ 0.54148 6 0 ping 64 ------- 0 6.0 3.0 -1 5
- 0.54148 6 0 ping 64 ------- 0 6.0 3.0 -1 5
r 0.56272 6 0 ping 64 ------- 0 6.0 3.0 -1 5
+ 0.56272 0 3 ping 64 ------- 0 6.0 3.0 -1 5
- 0.56272 0 3 ping 64 ------- 0 6.0 3.0 -1 5
r 0.58296 0 3 ping 64 ------- 0 6.0 3.0 -1 5
+ 1 4 0 ping 64 ------- 0 4.0 1.0 -1 6
- 1 4 0 ping 64 ------- 0 4.0 1.0 -1 6
r 1.02024 4 0 ping 64 ------- 0 4.0 1.0 -1 6
+ 1.02024 0 1 ping 64 ------- 0 4.0 1.0 -1 6
- 1.02024 0 1 ping 64 ------- 0 4.0 1.0 -1 6
r 1.04248 0 1 ping 64 ------- 0 4.0 1.0 -1 6
+ 1.04248 1 0 ping 64 ------- 0 1.0 4.0 -1 7
- 1.04248 1 0 ping 64 ------- 0 1.0 4.0 -1 7
r 1.06472 1 0 ping 64 ------- 0 1.0 4.0 -1 7
+ 1.06472 0 4 ping 64 ------- 0 1.0 4.0 -1 7
- 1.06472 0 4 ping 64 ------- 0 1.0 4.0 -1 7
r 1.08496 0 4 ping 64 ------- 0 1.0 4.0 -1 7
+ 1.2 5 0 ping 64 ------- 0 5.0 2.0 -1 8
- 1.2 5 0 ping 64 ------- 0 5.0 2.0 -1 8
r 1.22024 5 0 ping 64 ------- 0 5.0 2.0 -1 8
+ 1.22024 0 2 ping 64 ------- 0 5.0 2.0 -1 8
- 1.22024 0 2 ping 64 ------- 0 5.0 2.0 -1 8
r 1.24048 0 2 ping 64 ------- 0 5.0 2.0 -1 8
+ 1.24048 2 0 ping 64 ------- 0 2.0 5.0 -1 9
- 1.24048 2 0 ping 64 ------- 0 2.0 5.0 -1 9
r 1.26072 2 0 ping 64 ------- 0 2.0 5.0 -1 9
+ 1.26072 0 5 ping 64 ------- 0 2.0 5.0 -1 9
- 1.26072 0 5 ping 64 ------- 0 2.0 5.0 -1 9
r 1.28096 0 5 ping 64 ------- 0 2.0 5.0 -1 9
+ 1.4 6 0 ping 64 ------- 0 6.0 3.0 -1 10
- 1.4 6 0 ping 64 ------- 0 6.0 3.0 -1 10
r 1.42124 6 0 ping 64 ------- 0 6.0 3.0 -1 10
+ 1.42124 0 3 ping 64 ------- 0 6.0 3.0 -1 10
- 1.42124 0 3 ping 64 ------- 0 6.0 3.0 -1 10
r 1.44148 0 3 ping 64 ------- 0 6.0 3.0 -1 10
+ 1.44148 3 0 ping 64 ------- 0 3.0 6.0 -1 11
- 1.44148 3 0 ping 64 ------- 0 3.0 6.0 -1 11
r 1.46172 3 0 ping 64 ------- 0 3.0 6.0 -1 11
+ 1.46172 0 6 ping 64 ------- 0 3.0 6.0 -1 11
- 1.46172 0 6 ping 64 ------- 0 3.0 6.0 -1 11
r 1.48296 0 6 ping 64 ------- 0 3.0 6.0 -1 11
