+ 0.1 0 2 tcp 40 ------- 1 0.0 3.0 0 0
- 0.1 0 2 tcp 40 ------- 1 0.0 3.0 0 0
r 0.1132 0 2 tcp 40 ------- 1 0.0 3.0 0 0
+ 0.1132 2 3 tcp 40 ------- 1 0.0 3.0 0 0
- 0.1132 2 3 tcp 40 ------- 1 0.0 3.0 0 0
r 0.12352 2 3 tcp 40 ------- 1 0.0 3.0 0 0
+ 0.12352 3 2 ack 40 ------- 1 3.0 0.0 0 1
- 0.12352 3 2 ack 40 ------- 1 3.0 0.0 0 1
r 0.13384 3 2 ack 40 ------- 1 3.0 0.0 0 1
+ 0.13384 2 0 ack 40 ------- 1 3.0 0.0 0 1
- 0.13384 2 0 ack 40 ------- 1 3.0 0.0 0 1
r 0.14704 2 0 ack 40 ------- 1 3.0 0.0 0 1
+ 0.14704 0 2 tcp 1040 ------- 1 0.0 3.0 1 2
- 0.14704 0 2 tcp 1040 ------- 1 0.0 3.0 1 2
+ 0.14704 0 2 tcp 1040 ------- 1 0.0 3.0 2 3
+ 0.2 1 2 cbr 500 ------- 0 1.0 3.1 0 4
- 0.2 1 2 cbr 500 ------- 0 1.0 3.1 0 4
+ 0.205 1 2 cbr 500 ------- 0 1.0 3.1 1 5
- 0.205 1 2 cbr 500 ------- 0 1.0 3.1 1 5
+ 0.21 1 2 cbr 500 ------- 0 1.0 3.1 2 6
- 0.21 1 2 cbr 500 ------- 0 1.0 3.1 2 6
r 0.214 1 2 cbr 500 ------- 0 1.0 3.1 0 4
+ 0.214 2 3 cbr 500 ------- 0 1.0 3.1 0 4
- 0.214 2 3 cbr 500 ------- 0 1.0 3.1 0 4
+ 0.215 1 2 cbr 500 ------- 0 1.0 3.1 3 7
- 0.215 1 2 cbr 500 ------- 0 1.0 3.1 3 7
r 0.219 1 2 cbr 500 ------- 0 1.0 3.1 1 5
+ 0.219 2 3 cbr 500 ------- 0 1.0 3.1 1 5
- 0.219 2 3 cbr 500 ------- 0 1.0 3.1 1 5
+ 0.22 1 2 cbr 500 ------- 0 1.0 3.1 4 8
- 0.22 1 2 cbr 500 ------- 0 1.0 3.1 4 8
r 0.224 1 2 cbr 500 ------- 0 1.0 3.1 2 6
+ 0.224 2 3 cbr 500 ------- 0 1.0 3.1 2 6
- 0.224 2 3 cbr 500 ------- 0 1.0 3.1 2 6
+ 0.225 1 2 cbr 500 ------- 0 1.0 3.1 5 9
- 0.225 1 2 cbr 500 ------- 0 1.0 3.1 5 9
r 0.228 2 3 cbr 500 ------- 0 1.0 3.1 0 4
r 0.229 1 2 cbr 500 ------- 0 1.0 3.1 3 7
+ 0.229 2 3 cbr 500 ------- 0 1.0 3.1 3 7
- 0.229 2 3 cbr 500 ------- 0 1.0 3.1 3 7
+ 0.23 1 2 cbr 500 ------- 0 1.0 3.1 6 10
- 0.23 1 2 cbr 500 ------- 0 1.0 3.1 6 10
- 0.23024 0 2 tcp 1040 ------- 1 0.0 3.0 2 3
r 0.233 2 3 cbr 500 ------- 0 1.0 3.1 1 5
r 0.234 1 2 cbr 500 ------- 0 1.0 3.1 4 8
+ 0.234 2 3 cbr 500 ------- 0 1.0 3.1 4 8
- 0.234 2 3 cbr 500 ------- 0 1.0 3.1 4 8
+ 0.235 1 2 cbr 500 ------- 0 1.0 3.1 7 11
- 0.235 1 2 cbr 500 ------- 0 1.0 3.1 7 11
r 0.238 2 3 cbr 500 ------- 0 1.0 3.1 2 6
r 0.239 1 2 cbr 500 ------- 0 1.0 3.1 5 9
+ 0.239 2 3 cbr 500 ------- 0 1.0 3.1 5 9
- 0.239 2 3 cbr 500 ------- 0 1.0 3.1 5 9
+ 0.24 1 2 cbr 500 ------- 0 1.0 3.1 8 12
- 0.24 1 2 cbr 500 ------- 0 1.0 3.1 8 12
r 0.24024 0 2 tcp 1040 ------- 1 0.0 3.0 1 2
+ 0.24024 2 3 tcp 1040 ------- 1 0.0 3.0 1 2
r 0.243 2 3 cbr 500 ------- 0 1.0 3.1 3 7
- 0.243 2 3 tcp 1040 ------- 1 0.0 3.0 1 2
r 0.244 1 2 cbr 500 ------- 0 1.0 3.1 6 10
+ 0.244 2 3 cbr 500 ------- 0 1.0 3.1 6 10
+ 0.245 1 2 cbr 500 ------- 0 1.0 3.1 9 13
- 0.245 1 2 cbr 500 ------- 0 1.0 3.1 9 13
r 0.248 2 3 cbr 500 ------- 0 1.0 3.1 4 8
r 0.249 1 2 cbr 500 ------- 0 1.0 3.1 7 11
+ 0.249 2 3 cbr 500 ------- 0 1.0 3.1 7 11
+ 0.25 1 2 cbr 500 ------- 0 1.0 3.1 10 14
- 0.25 1 2 cbr 500 ------- 0 1.0 3.1 10 14
- 0.25132 2 3 cbr 500 ------- 0 1.0 3.1 6 10
r 0.253 2 3 cbr 500 ------- 0 1.0 3.1 5 9
r 0.254 1 2 cbr 500 ------- 0 1.0 3.1 8 12
+ 0.254 2 3 cbr 500 ------- 0 1.0 3.1 8 12
+ 0.255 1 2 cbr 500 ------- 0 1.0 3.1 11 15
- 0.255 1 2 cbr 500 ------- 0 1.0 3.1 11 15
- 0.25532 2 3 cbr 500 ------- 0 1.0 3.1 7 11
r 0.259 1 2 cbr 500 ------- 0 1.0 3.1 9 13
+ 0.259 2 3 cbr 500 ------- 0 1.0 3.1 9 13
- 0.25932 2 3 cbr 500 ------- 0 1.0 3.1 8 12
+ 0.26 1 2 cbr 500 ------- 0 1.0 3.1 12 16
- 0.26 1 2 cbr 500 ------- 0 1.0 3.1 12 16
r 0.26132 2 3 tcp 1040 ------- 1 0.0 3.0 1 2
+ 0.26132 3 2 ack 40 ------- 1 3.0 0.0 1 17
- 0.26132 3 2 ack 40 ------- 1 3.0 0.0 1 17
- 0.26332 2 3 cbr 500 ------- 0 1.0 3.1 9 13
r 0.264 1 2 cbr 500 ------- 0 1.0 3.1 10 14
+ 0.264 2 3 cbr 500 ------- 0 1.0 3.1 10 14
+ 0.265 1 2 cbr 500 ------- 0 1.0 3.1 13 18
- 0.265 1 2 cbr 500 ------- 0 1.0 3.1 13 18
r 0.26532 2 3 cbr 500 ------- 0 1.0 3.1 6 10
- 0.26732 2 3 cbr 500 ------- 0 1.0 3.1 10 14
r 0.269 1 2 cbr 500 ------- 0 1.0 3.1 11 15
+ 0.269 2 3 cbr 500 ------- 0 1.0 3.1 11 15
r 0.26932 2 3 cbr 500 ------- 0 1.0 3.1 7 11
+ 0.27 1 2 cbr 500 ------- 0 1.0 3.1 14 19
- 0.27 1 2 cbr 500 ------- 0 1.0 3.1 14 19
- 0.27132 2 3 cbr 500 ------- 0 1.0 3.1 11 15
r 0.27164 3 2 ack 40 ------- 1 3.0 0.0 1 17
+ 0.27164 2 0 ack 40 ------- 1 3.0 0.0 1 17
- 0.27164 2 0 ack 40 ------- 1 3.0 0.0 1 17
r 0.27332 2 3 cbr 500 ------- 0 1.0 3.1 8 12
r 0.274 1 2 cbr 500 ------- 0 1.0 3.1 12 16
+ 0.274 2 3 cbr 500 ------- 0 1.0 3.1 12 16
+ 0.275 1 2 cbr 500 ------- 0 1.0 3.1 15 20
- 0.275 1 2 cbr 500 ------- 0 1.0 3.1 15 20
- 0.27532 2 3 cbr 500 ------- 0 1.0 3.1 12 16
r 0.27732 2 3 cbr 500 ------- 0 1.0 3.1 9 13
r 0.279 1 2 cbr 500 ------- 0 1.0 3.1 13 18
+ 0.279 2 3 cbr 500 ------- 0 1.0 3.1 13 18
- 0.27932 2 3 cbr 500 ------- 0 1.0 3.1 13 18
+ 0.28 1 2 cbr 500 ------- 0 1.0 3.1 16 21
- 0.28 1 2 cbr 500 ------- 0 1.0 3.1 16 21
r 0.28132 2 3 cbr 500 ------- 0 1.0 3.1 10 14
r 0.284 1 2 cbr 500 ------- 0 1.0 3.1 14 19
+ 0.284 2 3 cbr 500 ------- 0 1.0 3.1 14 19
- 0.284 2 3 cbr 500 ------- 0 1.0 3.1 14 19
r 0.28484 2 0 ack 40 ------- 1 3.0 0.0 1 17
+ 0.28484 0 2 tcp 1040 ------- 1 0.0 3.0 3 22
+ 0.28484 0 2 tcp 1040 ------- 1 0.0 3.0 4 23
+ 0.285 1 2 cbr 500 ------- 0 1.0 3.1 17 24
- 0.285 1 2 cbr 500 ------- 0 1.0 3.1 17 24
r 0.28532 2 3 cbr 500 ------- 0 1.0 3.1 11 15
r 0.289 1 2 cbr 500 ------- 0 1.0 3.1 15 20
+ 0.289 2 3 cbr 500 ------- 0 1.0 3.1 15 20
- 0.289 2 3 cbr 500 ------- 0 1.0 3.1 15 20
r 0.28932 2 3 cbr 500 ------- 0 1.0 3.1 12 16
+ 0.29 1 2 cbr 500 ------- 0 1.0 3.1 18 25
- 0.29 1 2 cbr 500 ------- 0 1.0 3.1 18 25
r 0.29332 2 3 cbr 500 ------- 0 1.0 3.1 13 18
r 0.294 1 2 cbr 500 ------- 0 1.0 3.1 16 21
+ 0.294 2 3 cbr 500 ------- 0 1.0 3.1 16 21
- 0.294 2 3 cbr 500 ------- 0 1.0 3.1 16 21
+ 0.295 1 2 cbr 500 ------- 0 1.0 3.1 19 26
- 0.295 1 2 cbr 500 ------- 0 1.0 3.1 19 26
r 0.298 2 3 cbr 500 ------- 0 1.0 3.1 14 19
r 0.299 1 2 cbr 500 ------- 0 1.0 3.1 17 24
+ 0.299 2 3 cbr 500 ------- 0 1.0 3.1 17 24
- 0.299 2 3 cbr 500 ------- 0 1.0 3.1 17 24
+ 0.3 1 2 cbr 500 ------- 0 1.0 3.1 20 27
- 0.3 1 2 cbr 500 ------- 0 1.0 3.1 20 27
r 0.303 2 3 cbr 500 ------- 0 1.0 3.1 15 20
r 0.304 1 2 cbr 500 ------- 0 1.0 3.1 18 25
+ 0.304 2 3 cbr 500 ------- 0 1.0 3.1 18 25
- 0.304 2 3 cbr 500 ------- 0 1.0 3.1 18 25
+ 0.305 1 2 cbr 500 ------- 0 1.0 3.1 21 28
- 0.305 1 2 cbr 500 ------- 0 1.0 3.1 21 28
r 0.308 2 3 cbr 500 ------- 0 1.0 3.1 16 21
r 0.309 1 2 cbr 500 ------- 0 1.0 3.1 19 26
+ 0.309 2 3 cbr 500 ------- 0 1.0 3.1 19 26
- 0.309 2 3 cbr 500 ------- 0 1.0 3.1 19 26
+ 0.31 1 2 cbr 500 ------- 0 1.0 3.1 22 29
- 0.31 1 2 cbr 500 ------- 0 1.0 3.1 22 29
r 0.313 2 3 cbr 500 ------- 0 1.0 3.1 17 24
- 0.31344 0 2 tcp 1040 ------- 1 0.0 3.0 3 22
r 0.314 1 2 cbr 500 ------- 0 1.0 3.1 20 27
+ 0.314 2 3 cbr 500 ------- 0 1.0 3.1 20 27
- 0.314 2 3 cbr 500 ------- 0 1.0 3.1 20 27
+ 0.315 1 2 cbr 500 ------- 0 1.0 3.1 23 30
- 0.315 1 2 cbr 500 ------- 0 1.0 3.1 23 30
r 0.318 2 3 cbr 500 ------- 0 1.0 3.1 18 25
r 0.319 1 2 cbr 500 ------- 0 1.0 3.1 21 28
+ 0.319 2 3 cbr 500 ------- 0 1.0 3.1 21 28
- 0.319 2 3 cbr 500 ------- 0 1.0 3.1 21 28
+ 0.32 1 2 cbr 500 ------- 0 1.0 3.1 24 31
- 0.32 1 2 cbr 500 ------- 0 1.0 3.1 24 31
r 0.323 2 3 cbr 500 ------- 0 1.0 3.1 19 26
r 0.32344 0 2 tcp 1040 ------- 1 0.0 3.0 2 3
+ 0.32344 2 3 tcp 1040 ------- 1 0.0 3.0 2 3
- 0.32344 2 3 tcp 1040 ------- 1 0.0 3.0 2 3
r 0.324 1 2 cbr 500 ------- 0 1.0 3.1 22 29
+ 0.324 2 3 cbr 500 ------- 0 1.0 3.1 22 29
+ 0.325 1 2 cbr 500 ------- 0 1.0 3.1 25 32
- 0.325 1 2 cbr 500 ------- 0 1.0 3.1 25 32
r 0.328 2 3 cbr 500 ------- 0 1.0 3.1 20 27
r 0.329 1 2 cbr 500 ------- 0 1.0 3.1 23 30
+ 0.329 2 3 cbr 500 ------- 0 1.0 3.1 23 30
+ 0.33 1 2 cbr 500 ------- 0 1.0 3.1 26 33
- 0.33 1 2 cbr 500 ------- 0 1.0 3.1 26 33
- 0.33176 2 3 cbr 500 ------- 0 1.0 3.1 22 29
r 0.333 2 3 cbr 500 ------- 0 1.0 3.1 21 28
r 0.334 1 2 cbr 500 ------- 0 1.0 3.1 24 31
+ 0.334 2 3 cbr 500 ------- 0 1.0 3.1 24 31
+ 0.335 1 2 cbr 500 ------- 0 1.0 3.1 27 34
- 0.335 1 2 cbr 500 ------- 0 1.0 3.1 27 34
- 0.33576 2 3 cbr 500 ------- 0 1.0 3.1 23 30
r 0.339 1 2 cbr 500 ------- 0 1.0 3.1 25 32
+ 0.339 2 3 cbr 500 ------- 0 1.0 3.1 25 32
- 0.33976 2 3 cbr 500 ------- 0 1.0 3.1 24 31
+ 0.34 1 2 cbr 500 ------- 0 1.0 3.1 28 35
- 0.34 1 2 cbr 500 ------- 0 1.0 3.1 28 35
r 0.34176 2 3 tcp 1040 ------- 1 0.0 3.0 2 3
+ 0.34176 3 2 ack 40 ------- 1 3.0 0.0 2 36
- 0.34176 3 2 ack 40 ------- 1 3.0 0.0 2 36
- 0.34376 2 3 cbr 500 ------- 0 1.0 3.1 25 32
r 0.344 1 2 cbr 500 ------- 0 1.0 3.1 26 33
+ 0.344 2 3 cbr 500 ------- 0 1.0 3.1 26 33
+ 0.345 1 2 cbr 500 ------- 0 1.0 3.1 29 37
- 0.345 1 2 cbr 500 ------- 0 1.0 3.1 29 37
r 0.34576 2 3 cbr 500 ------- 0 1.0 3.1 22 29
- 0.34776 2 3 cbr 500 ------- 0 1.0 3.1 26 33
r 0.349 1 2 cbr 500 ------- 0 1.0 3.1 27 34
+ 0.349 2 3 cbr 500 ------- 0 1.0 3.1 27 34
r 0.34976 2 3 cbr 500 ------- 0 1.0 3.1 23 30
+ 0.35 1 2 cbr 500 ------- 0 1.0 3.1 30 38
- 0.35 1 2 cbr 500 ------- 0 1.0 3.1 30 38
- 0.35176 2 3 cbr 500 ------- 0 1.0 3.1 27 34
r 0.35208 3 2 ack 40 ------- 1 3.0 0.0 2 36
+ 0.35208 2 0 ack 40 ------- 1 3.0 0.0 2 36
- 0.35208 2 0 ack 40 ------- 1 3.0 0.0 2 36
r 0.35376 2 3 cbr 500 ------- 0 1.0 3.1 24 31
r 0.354 1 2 cbr 500 ------- 0 1.0 3.1 28 35
+ 0.354 2 3 cbr 500 ------- 0 1.0 3.1 28 35
+ 0.355 1 2 cbr 500 ------- 0 1.0 3.1 31 39
- 0.355 1 2 cbr 500 ------- 0 1.0 3.1 31 39
- 0.35576 2 3 cbr 500 ------- 0 1.0 3.1 28 35
r 0.35776 2 3 cbr 500 ------- 0 1.0 3.1 25 32
r 0.359 1 2 cbr 500 ------- 0 1.0 3.1 29 37
+ 0.359 2 3 cbr 500 ------- 0 1.0 3.1 29 37
- 0.35976 2 3 cbr 500 ------- 0 1.0 3.1 29 37
+ 0.36 1 2 cbr 500 ------- 0 1.0 3.1 32 40
- 0.36 1 2 cbr 500 ------- 0 1.0 3.1 32 40
r 0.36176 2 3 cbr 500 ------- 0 1.0 3.1 26 33
r 0.364 1 2 cbr 500 ------- 0 1.0 3.1 30 38
+ 0.364 2 3 cbr 500 ------- 0 1.0 3.1 30 38
- 0.364 2 3 cbr 500 ------- 0 1.0 3.1 30 38
+ 0.365 1 2 cbr 500 ------- 0 1.0 3.1 33 41
- 0.365 1 2 cbr 500 ------- 0 1.0 3.1 33 41
r 0.36528 2 0 ack 40 ------- 1 3.0 0.0 2 36
+ 0.36528 0 2 tcp 1040 ------- 1 0.0 3.0 5 42
+ 0.36528 0 2 tcp 1040 ------- 1 0.0 3.0 6 43
r 0.36576 2 3 cbr 500 ------- 0 1.0 3.1 27 34
r 0.369 1 2 cbr 500 ------- 0 1.0 3.1 31 39
+ 0.369 2 3 cbr 500 ------- 0 1.0 3.1 31 39
- 0.369 2 3 cbr 500 ------- 0 1.0 3.1 31 39
r 0.36976 2 3 cbr 500 ------- 0 1.0 3.1 28 35
+ 0.37 1 2 cbr 500 ------- 0 1.0 3.1 34 44
- 0.37 1 2 cbr 500 ------- 0 1.0 3.1 34 44
r 0.37376 2 3 cbr 500 ------- 0 1.0 3.1 29 37
r 0.374 1 2 cbr 500 ------- 0 1.0 3.1 32 40
+ 0.374 2 3 cbr 500 ------- 0 1.0 3.1 32 40
- 0.374 2 3 cbr 500 ------- 0 1.0 3.1 32 40
+ 0.375 1 2 cbr 500 ------- 0 1.0 3.1 35 45
- 0.375 1 2 cbr 500 ------- 0 1.0 3.1 35 45
r 0.378 2 3 cbr 500 ------- 0 1.0 3.1 30 38
r 0.379 1 2 cbr 500 ------- 0 1.0 3.1 33 41
+ 0.379 2 3 cbr 500 ------- 0 1.0 3.1 33 41
- 0.379 2 3 cbr 500 ------- 0 1.0 3.1 33 41
+ 0.38 1 2 cbr 500 ------- 0 1.0 3.1 36 46
- 0.38 1 2 cbr 500 ------- 0 1.0 3.1 36 46
r 0.383 2 3 cbr 500 ------- 0 1.0 3.1 31 39
r 0.384 1 2 cbr 500 ------- 0 1.0 3.1 34 44
+ 0.384 2 3 cbr 500 ------- 0 1.0 3.1 34 44
- 0.384 2 3 cbr 500 ------- 0 1.0 3.1 34 44
+ 0.385 1 2 cbr 500 ------- 0 1.0 3.1 37 47
- 0.385 1 2 cbr 500 ------- 0 1.0 3.1 37 47
r 0.388 2 3 cbr 500 ------- 0 1.0 3.1 32 40
r 0.389 1 2 cbr 500 ------- 0 1.0 3.1 35 45
+ 0.389 2 3 cbr 500 ------- 0 1.0 3.1 35 45
- 0.389 2 3 cbr 500 ------- 0 1.0 3.1 35 45
+ 0.39 1 2 cbr 500 ------- 0 1.0 3.1 38 48
- 0.39 1 2 cbr 500 ------- 0 1.0 3.1 38 48
r 0.393 2 3 cbr 500 ------- 0 1.0 3.1 33 41
r 0.394 1 2 cbr 500 ------- 0 1.0 3.1 36 46
+ 0.394 2 3 cbr 500 ------- 0 1.0 3.1 36 46
- 0.394 2 3 cbr 500 ------- 0 1.0 3.1 36 46
+ 0.395 1 2 cbr 500 ------- 0 1.0 3.1 39 49
- 0.395 1 2 cbr 500 ------- 0 1.0 3.1 39 49
- 0.39664 0 2 tcp 1040 ------- 1 0.0 3.0 4 23
r 0.398 2 3 cbr 500 ------- 0 1.0 3.1 34 44
r 0.399 1 2 cbr 500 ------- 0 1.0 3.1 37 47
+ 0.399 2 3 cbr 500 ------- 0 1.0 3.1 37 47
- 0.399 2 3 cbr 500 ------- 0 1.0 3.1 37 47
+ 0.4 1 2 cbr 500 ------- 0 1.0 3.1 40 50
- 0.4 1 2 cbr 500 ------- 0 1.0 3.1 40 50
r 0.403 2 3 cbr 500 ------- 0 1.0 3.1 35 45
r 0.404 1 2 cbr 500 ------- 0 1.0 3.1 38 48
+ 0.404 2 3 cbr 500 ------- 0 1.0 3.1 38 48
- 0.404 2 3 cbr 500 ------- 0 1.0 3.1 38 48
+ 0.405 1 2 cbr 500 ------- 0 1.0 3.1 41 51
- 0.405 1 2 cbr 500 ------- 0 1.0 3.1 41 51
r 0.40664 0 2 tcp 1040 ------- 1 0.0 3.0 3 22
+ 0.40664 2 3 tcp 1040 ------- 1 0.0 3.0 3 22
r 0.408 2 3 cbr 500 ------- 0 1.0 3.1 36 46
- 0.408 2 3 tcp 1040 ------- 1 0.0 3.0 3 22
r 0.409 1 2 cbr 500 ------- 0 1.0 3.1 39 49
+ 0.409 2 3 cbr 500 ------- 0 1.0 3.1 39 49
+ 0.41 1 2 cbr 500 ------- 0 1.0 3.1 42 52
- 0.41 1 2 cbr 500 ------- 0 1.0 3.1 42 52
r 0.413 2 3 cbr 500 ------- 0 1.0 3.1 37 47
r 0.414 1 2 cbr 500 ------- 0 1.0 3.1 40 50
+ 0.414 2 3 cbr 500 ------- 0 1.0 3.1 40 50
+ 0.415 1 2 cbr 500 ------- 0 1.0 3.1 43 53
- 0.415 1 2 cbr 500 ------- 0 1.0 3.1 43 53
- 0.41632 2 3 cbr 500 ------- 0 1.0 3.1 39 49
r 0.418 2 3 cbr 500 ------- 0 1.0 3.1 38 48
r 0.419 1 2 cbr 500 ------- 0 1.0 3.1 41 51
+ 0.419 2 3 cbr 500 ------- 0 1.0 3.1 41 51
+ 0.42 1 2 cbr 500 ------- 0 1.0 3.1 44 54
- 0.42 1 2 cbr 500 ------- 0 1.0 3.1 44 54
- 0.42032 2 3 cbr 500 ------- 0 1.0 3.1 40 50
r 0.424 1 2 cbr 500 ------- 0 1.0 3.1 42 52
+ 0.424 2 3 cbr 500 ------- 0 1.0 3.1 42 52
- 0.42432 2 3 cbr 500 ------- 0 1.0 3.1 41 51
+ 0.425 1 2 cbr 500 ------- 0 1.0 3.1 45 55
- 0.425 1 2 cbr 500 ------- 0 1.0 3.1 45 55
r 0.42632 2 3 tcp 1040 ------- 1 0.0 3.0 3 22
+ 0.42632 3 2 ack 40 ------- 1 3.0 0.0 3 56
- 0.42632 3 2 ack 40 ------- 1 3.0 0.0 3 56
- 0.42832 2 3 cbr 500 ------- 0 1.0 3.1 42 52
r 0.429 1 2 cbr 500 ------- 0 1.0 3.1 43 53
+ 0.429 2 3 cbr 500 ------- 0 1.0 3.1 43 53
+ 0.43 1 2 cbr 500 ------- 0 1.0 3.1 46 57
- 0.43 1 2 cbr 500 ------- 0 1.0 3.1 46 57
r 0.43032 2 3 cbr 500 ------- 0 1.0 3.1 39 49
- 0.43232 2 3 cbr 500 ------- 0 1.0 3.1 43 53
r 0.434 1 2 cbr 500 ------- 0 1.0 3.1 44 54
+ 0.434 2 3 cbr 500 ------- 0 1.0 3.1 44 54
r 0.43432 2 3 cbr 500 ------- 0 1.0 3.1 40 50
+ 0.435 1 2 cbr 500 ------- 0 1.0 3.1 47 58
- 0.435 1 2 cbr 500 ------- 0 1.0 3.1 47 58
- 0.43632 2 3 cbr 500 ------- 0 1.0 3.1 44 54
r 0.43664 3 2 ack 40 ------- 1 3.0 0.0 3 56
+ 0.43664 2 0 ack 40 ------- 1 3.0 0.0 3 56
- 0.43664 2 0 ack 40 ------- 1 3.0 0.0 3 56
r 0.43832 2 3 cbr 500 ------- 0 1.0 3.1 41 51
r 0.439 1 2 cbr 500 ------- 0 1.0 3.1 45 55
+ 0.439 2 3 cbr 500 ------- 0 1.0 3.1 45 55
+ 0.44 1 2 cbr 500 ------- 0 1.0 3.1 48 59
- 0.44 1 2 cbr 500 ------- 0 1.0 3.1 48 59
- 0.44032 2 3 cbr 500 ------- 0 1.0 3.1 45 55
r 0.44232 2 3 cbr 500 ------- 0 1.0 3.1 42 52
r 0.444 1 2 cbr 500 ------- 0 1.0 3.1 46 57
+ 0.444 2 3 cbr 500 ------- 0 1.0 3.1 46 57
- 0.44432 2 3 cbr 500 ------- 0 1.0 3.1 46 57
+ 0.445 1 2 cbr 500 ------- 0 1.0 3.1 49 60
- 0.445 1 2 cbr 500 ------- 0 1.0 3.1 49 60
r 0.44632 2 3 cbr 500 ------- 0 1.0 3.1 43 53
r 0.449 1 2 cbr 500 ------- 0 1.0 3.1 47 58
+ 0.449 2 3 cbr 500 ------- 0 1.0 3.1 47 58
- 0.449 2 3 cbr 500 ------- 0 1.0 3.1 47 58
r 0.44984 2 0 ack 40 ------- 1 3.0 0.0 3 56
+ 0.44984 0 2 tcp 1040 ------- 1 0.0 3.0 7 61
+ 0.44984 0 2 tcp 1040 ------- 1 0.0 3.0 8 62
+ 0.45 1 2 cbr 500 ------- 0 1.0 3.1 50 63
- 0.45 1 2 cbr 500 ------- 0 1.0 3.1 50 63
r 0.45032 2 3 cbr 500 ------- 0 1.0 3.1 44 54
r 0.454 1 2 cbr 500 ------- 0 1.0 3.1 48 59
+ 0.454 2 3 cbr 500 ------- 0 1.0 3.1 48 59
- 0.454 2 3 cbr 500 ------- 0 1.0 3.1 48 59
r 0.45432 2 3 cbr 500 ------- 0 1.0 3.1 45 55
+ 0.455 1 2 cbr 500 ------- 0 1.0 3.1 51 64
- 0.455 1 2 cbr 500 ------- 0 1.0 3.1 51 64
r 0.45832 2 3 cbr 500 ------- 0 1.0 3.1 46 57
r 0.459 1 2 cbr 500 ------- 0 1.0 3.1 49 60
+ 0.459 2 3 cbr 500 ------- 0 1.0 3.1 49 60
- 0.459 2 3 cbr 500 ------- 0 1.0 3.1 49 60
+ 0.46 1 2 cbr 500 ------- 0 1.0 3.1 52 65
- 0.46 1 2 cbr 500 ------- 0 1.0 3.1 52 65
r 0.463 2 3 cbr 500 ------- 0 1.0 3.1 47 58
r 0.464 1 2 cbr 500 ------- 0 1.0 3.1 50 63
+ 0.464 2 3 cbr 500 ------- 0 1.0 3.1 50 63
- 0.464 2 3 cbr 500 ------- 0 1.0 3.1 50 63
+ 0.465 1 2 cbr 500 ------- 0 1.0 3.1 53 66
- 0.465 1 2 cbr 500 ------- 0 1.0 3.1 53 66
r 0.468 2 3 cbr 500 ------- 0 1.0 3.1 48 59
r 0.469 1 2 cbr 500 ------- 0 1.0 3.1 51 64
+ 0.469 2 3 cbr 500 ------- 0 1.0 3.1 51 64
- 0.469 2 3 cbr 500 ------- 0 1.0 3.1 51 64
+ 0.47 1 2 cbr 500 ------- 0 1.0 3.1 54 67
- 0.47 1 2 cbr 500 ------- 0 1.0 3.1 54 67
r 0.473 2 3 cbr 500 ------- 0 1.0 3.1 49 60
r 0.474 1 2 cbr 500 ------- 0 1.0 3.1 52 65
+ 0.474 2 3 cbr 500 ------- 0 1.0 3.1 52 65
- 0.474 2 3 cbr 500 ------- 0 1.0 3.1 52 65
+ 0.475 1 2 cbr 500 ------- 0 1.0 3.1 55 68
- 0.475 1 2 cbr 500 ------- 0 1.0 3.1 55 68
r 0.478 2 3 cbr 500 ------- 0 1.0 3.1 50 63
r 0.479 1 2 cbr 500 ------- 0 1.0 3.1 53 66
+ 0.479 2 3 cbr 500 ------- 0 1.0 3.1 53 66
- 0.479 2 3 cbr 500 ------- 0 1.0 3.1 53 66
- 0.47984 0 2 tcp 1040 ------- 1 0.0 3.0 5 42
+ 0.48 1 2 cbr 500 ------- 0 1.0 3.1 56 69
- 0.48 1 2 cbr 500 ------- 0 1.0 3.1 56 69
r 0.483 2 3 cbr 500 ------- 0 1.0 3.1 51 64
r 0.484 1 2 cbr 500 ------- 0 1.0 3.1 54 67
+ 0.484 2 3 cbr 500 ------- 0 1.0 3.1 54 67
- 0.484 2 3 cbr 500 ------- 0 1.0 3.1 54 67
+ 0.485 1 2 cbr 500 ------- 0 1.0 3.1 57 70
- 0.485 1 2 cbr 500 ------- 0 1.0 3.1 57 70
r 0.488 2 3 cbr 500 ------- 0 1.0 3.1 52 65
r 0.489 1 2 cbr 500 ------- 0 1.0 3.1 55 68
+ 0.489 2 3 cbr 500 ------- 0 1.0 3.1 55 68
- 0.489 2 3 cbr 500 ------- 0 1.0 3.1 55 68
r 0.48984 0 2 tcp 1040 ------- 1 0.0 3.0 4 23
+ 0.48984 2 3 tcp 1040 ------- 1 0.0 3.0 4 23
+ 0.49 1 2 cbr 500 ------- 0 1.0 3.1 58 71
- 0.49 1 2 cbr 500 ------- 0 1.0 3.1 58 71
r 0.493 2 3 cbr 500 ------- 0 1.0 3.1 53 66
- 0.493 2 3 tcp 1040 ------- 1 0.0 3.0 4 23
r 0.494 1 2 cbr 500 ------- 0 1.0 3.1 56 69
+ 0.494 2 3 cbr 500 ------- 0 1.0 3.1 56 69
+ 0.495 1 2 cbr 500 ------- 0 1.0 3.1 59 72
- 0.495 1 2 cbr 500 ------- 0 1.0 3.1 59 72
r 0.498 2 3 cbr 500 ------- 0 1.0 3.1 54 67
r 0.499 1 2 cbr 500 ------- 0 1.0 3.1 57 70
+ 0.499 2 3 cbr 500 ------- 0 1.0 3.1 57 70
+ 0.5 1 2 cbr 500 ------- 0 1.0 3.1 60 73
- 0.5 1 2 cbr 500 ------- 0 1.0 3.1 60 73
- 0.50132 2 3 cbr 500 ------- 0 1.0 3.1 56 69
r 0.503 2 3 cbr 500 ------- 0 1.0 3.1 55 68
r 0.504 1 2 cbr 500 ------- 0 1.0 3.1 58 71
+ 0.504 2 3 cbr 500 ------- 0 1.0 3.1 58 71
+ 0.505 1 2 cbr 500 ------- 0 1.0 3.1 61 74
- 0.505 1 2 cbr 500 ------- 0 1.0 3.1 61 74
- 0.50532 2 3 cbr 500 ------- 0 1.0 3.1 57 70
r 0.509 1 2 cbr 500 ------- 0 1.0 3.1 59 72
+ 0.509 2 3 cbr 500 ------- 0 1.0 3.1 59 72
- 0.50932 2 3 cbr 500 ------- 0 1.0 3.1 58 71
+ 0.51 1 2 cbr 500 ------- 0 1.0 3.1 62 75
- 0.51 1 2 cbr 500 ------- 0 1.0 3.1 62 75
r 0.51132 2 3 tcp 1040 ------- 1 0.0 3.0 4 23
+ 0.51132 3 2 ack 40 ------- 1 3.0 0.0 4 76
- 0.51132 3 2 ack 40 ------- 1 3.0 0.0 4 76
- 0.51332 2 3 cbr 500 ------- 0 1.0 3.1 59 72
r 0.514 1 2 cbr 500 ------- 0 1.0 3.1 60 73
+ 0.514 2 3 cbr 500 ------- 0 1.0 3.1 60 73
+ 0.515 1 2 cbr 500 ------- 0 1.0 3.1 63 77
- 0.515 1 2 cbr 500 ------- 0 1.0 3.1 63 77
r 0.51532 2 3 cbr 500 ------- 0 1.0 3.1 56 69
- 0.51732 2 3 cbr 500 ------- 0 1.0 3.1 60 73
r 0.519 1 2 cbr 500 ------- 0 1.0 3.1 61 74
+ 0.519 2 3 cbr 500 ------- 0 1.0 3.1 61 74
r 0.51932 2 3 cbr 500 ------- 0 1.0 3.1 57 70
+ 0.52 1 2 cbr 500 ------- 0 1.0 3.1 64 78
- 0.52 1 2 cbr 500 ------- 0 1.0 3.1 64 78
- 0.52132 2 3 cbr 500 ------- 0 1.0 3.1 61 74
r 0.52164 3 2 ack 40 ------- 1 3.0 0.0 4 76
+ 0.52164 2 0 ack 40 ------- 1 3.0 0.0 4 76
- 0.52164 2 0 ack 40 ------- 1 3.0 0.0 4 76
r 0.52332 2 3 cbr 500 ------- 0 1.0 3.1 58 71
r 0.524 1 2 cbr 500 ------- 0 1.0 3.1 62 75
+ 0.524 2 3 cbr 500 ------- 0 1.0 3.1 62 75
+ 0.525 1 2 cbr 500 ------- 0 1.0 3.1 65 79
- 0.525 1 2 cbr 500 ------- 0 1.0 3.1 65 79
- 0.52532 2 3 cbr 500 ------- 0 1.0 3.1 62 75
r 0.52732 2 3 cbr 500 ------- 0 1.0 3.1 59 72
r 0.529 1 2 cbr 500 ------- 0 1.0 3.1 63 77
+ 0.529 2 3 cbr 500 ------- 0 1.0 3.1 63 77
- 0.52932 2 3 cbr 500 ------- 0 1.0 3.1 63 77
+ 0.53 1 2 cbr 500 ------- 0 1.0 3.1 66 80
- 0.53 1 2 cbr 500 ------- 0 1.0 3.1 66 80
r 0.53132 2 3 cbr 500 ------- 0 1.0 3.1 60 73
r 0.534 1 2 cbr 500 ------- 0 1.0 3.1 64 78
+ 0.534 2 3 cbr 500 ------- 0 1.0 3.1 64 78
- 0.534 2 3 cbr 500 ------- 0 1.0 3.1 64 78
r 0.53484 2 0 ack 40 ------- 1 3.0 0.0 4 76
+ 0.53484 0 2 tcp 1040 ------- 1 0.0 3.0 9 81
+ 0.53484 0 2 tcp 1040 ------- 1 0.0 3.0 10 82
+ 0.535 1 2 cbr 500 ------- 0 1.0 3.1 67 83
- 0.535 1 2 cbr 500 ------- 0 1.0 3.1 67 83
r 0.53532 2 3 cbr 500 ------- 0 1.0 3.1 61 74
r 0.539 1 2 cbr 500 ------- 0 1.0 3.1 65 79
+ 0.539 2 3 cbr 500 ------- 0 1.0 3.1 65 79
- 0.539 2 3 cbr 500 ------- 0 1.0 3.1 65 79
r 0.53932 2 3 cbr 500 ------- 0 1.0 3.1 62 75
+ 0.54 1 2 cbr 500 ------- 0 1.0 3.1 68 84
- 0.54 1 2 cbr 500 ------- 0 1.0 3.1 68 84
r 0.54332 2 3 cbr 500 ------- 0 1.0 3.1 63 77
r 0.544 1 2 cbr 500 ------- 0 1.0 3.1 66 80
+ 0.544 2 3 cbr 500 ------- 0 1.0 3.1 66 80
- 0.544 2 3 cbr 500 ------- 0 1.0 3.1 66 80
+ 0.545 1 2 cbr 500 ------- 0 1.0 3.1 69 85
- 0.545 1 2 cbr 500 ------- 0 1.0 3.1 69 85
r 0.548 2 3 cbr 500 ------- 0 1.0 3.1 64 78
r 0.549 1 2 cbr 500 ------- 0 1.0 3.1 67 83
+ 0.549 2 3 cbr 500 ------- 0 1.0 3.1 67 83
- 0.549 2 3 cbr 500 ------- 0 1.0 3.1 67 83
+ 0.55 1 2 cbr 500 ------- 0 1.0 3.1 70 86
- 0.55 1 2 cbr 500 ------- 0 1.0 3.1 70 86
r 0.553 2 3 cbr 500 ------- 0 1.0 3.1 65 79
r 0.554 1 2 cbr 500 ------- 0 1.0 3.1 68 84
+ 0.554 2 3 cbr 500 ------- 0 1.0 3.1 68 84
- 0.554 2 3 cbr 500 ------- 0 1.0 3.1 68 84
+ 0.555 1 2 cbr 500 ------- 0 1.0 3.1 71 87
- 0.555 1 2 cbr 500 ------- 0 1.0 3.1 71 87
r 0.558 2 3 cbr 500 ------- 0 1.0 3.1 66 80
r 0.559 1 2 cbr 500 ------- 0 1.0 3.1 69 85
+ 0.559 2 3 cbr 500 ------- 0 1.0 3.1 69 85
- 0.559 2 3 cbr 500 ------- 0 1.0 3.1 69 85
+ 0.56 1 2 cbr 500 ------- 0 1.0 3.1 72 88
- 0.56 1 2 cbr 500 ------- 0 1.0 3.1 72 88
r 0.563 2 3 cbr 500 ------- 0 1.0 3.1 67 83
- 0.56304 0 2 tcp 1040 ------- 1 0.0 3.0 6 43
r 0.564 1 2 cbr 500 ------- 0 1.0 3.1 70 86
+ 0.564 2 3 cbr 500 ------- 0 1.0 3.1 70 86
- 0.564 2 3 cbr 500 ------- 0 1.0 3.1 70 86
+ 0.565 1 2 cbr 500 ------- 0 1.0 3.1 73 89
- 0.565 1 2 cbr 500 ------- 0 1.0 3.1 73 89
r 0.568 2 3 cbr 500 ------- 0 1.0 3.1 68 84
r 0.569 1 2 cbr 500 ------- 0 1.0 3.1 71 87
+ 0.569 2 3 cbr 500 ------- 0 1.0 3.1 71 87
- 0.569 2 3 cbr 500 ------- 0 1.0 3.1 71 87
+ 0.57 1 2 cbr 500 ------- 0 1.0 3.1 74 90
- 0.57 1 2 cbr 500 ------- 0 1.0 3.1 74 90
r 0.573 2 3 cbr 500 ------- 0 1.0 3.1 69 85
r 0.57304 0 2 tcp 1040 ------- 1 0.0 3.0 5 42
+ 0.57304 2 3 tcp 1040 ------- 1 0.0 3.0 5 42
- 0.57304 2 3 tcp 1040 ------- 1 0.0 3.0 5 42
r 0.574 1 2 cbr 500 ------- 0 1.0 3.1 72 88
+ 0.574 2 3 cbr 500 ------- 0 1.0 3.1 72 88
+ 0.575 1 2 cbr 500 ------- 0 1.0 3.1 75 91
- 0.575 1 2 cbr 500 ------- 0 1.0 3.1 75 91
r 0.578 2 3 cbr 500 ------- 0 1.0 3.1 70 86
r 0.579 1 2 cbr 500 ------- 0 1.0 3.1 73 89
+ 0.579 2 3 cbr 500 ------- 0 1.0 3.1 73 89
+ 0.58 1 2 cbr 500 ------- 0 1.0 3.1 76 92
- 0.58 1 2 cbr 500 ------- 0 1.0 3.1 76 92
- 0.58136 2 3 cbr 500 ------- 0 1.0 3.1 72 88
r 0.583 2 3 cbr 500 ------- 0 1.0 3.1 71 87
r 0.584 1 2 cbr 500 ------- 0 1.0 3.1 74 90
+ 0.584 2 3 cbr 500 ------- 0 1.0 3.1 74 90
+ 0.585 1 2 cbr 500 ------- 0 1.0 3.1 77 93
- 0.585 1 2 cbr 500 ------- 0 1.0 3.1 77 93
- 0.58536 2 3 cbr 500 ------- 0 1.0 3.1 73 89
r 0.589 1 2 cbr 500 ------- 0 1.0 3.1 75 91
+ 0.589 2 3 cbr 500 ------- 0 1.0 3.1 75 91
- 0.58936 2 3 cbr 500 ------- 0 1.0 3.1 74 90
+ 0.59 1 2 cbr 500 ------- 0 1.0 3.1 78 94
- 0.59 1 2 cbr 500 ------- 0 1.0 3.1 78 94
r 0.59136 2 3 tcp 1040 ------- 1 0.0 3.0 5 42
+ 0.59136 3 2 ack 40 ------- 1 3.0 0.0 5 95
- 0.59136 3 2 ack 40 ------- 1 3.0 0.0 5 95
- 0.59336 2 3 cbr 500 ------- 0 1.0 3.1 75 91
r 0.594 1 2 cbr 500 ------- 0 1.0 3.1 76 92
+ 0.594 2 3 cbr 500 ------- 0 1.0 3.1 76 92
+ 0.595 1 2 cbr 500 ------- 0 1.0 3.1 79 96
- 0.595 1 2 cbr 500 ------- 0 1.0 3.1 79 96
r 0.59536 2 3 cbr 500 ------- 0 1.0 3.1 72 88
- 0.59736 2 3 cbr 500 ------- 0 1.0 3.1 76 92
r 0.599 1 2 cbr 500 ------- 0 1.0 3.1 77 93
+ 0.599 2 3 cbr 500 ------- 0 1.0 3.1 77 93
r 0.59936 2 3 cbr 500 ------- 0 1.0 3.1 73 89
+ 0.6 1 2 cbr 500 ------- 0 1.0 3.1 80 97
- 0.6 1 2 cbr 500 ------- 0 1.0 3.1 80 97
- 0.60136 2 3 cbr 500 ------- 0 1.0 3.1 77 93
r 0.60168 3 2 ack 40 ------- 1 3.0 0.0 5 95
+ 0.60168 2 0 ack 40 ------- 1 3.0 0.0 5 95
- 0.60168 2 0 ack 40 ------- 1 3.0 0.0 5 95
r 0.60336 2 3 cbr 500 ------- 0 1.0 3.1 74 90
r 0.604 1 2 cbr 500 ------- 0 1.0 3.1 78 94
+ 0.604 2 3 cbr 500 ------- 0 1.0 3.1 78 94
+ 0.605 1 2 cbr 500 ------- 0 1.0 3.1 81 98
- 0.605 1 2 cbr 500 ------- 0 1.0 3.1 81 98
- 0.60536 2 3 cbr 500 ------- 0 1.0 3.1 78 94
r 0.60736 2 3 cbr 500 ------- 0 1.0 3.1 75 91
r 0.609 1 2 cbr 500 ------- 0 1.0 3.1 79 96
+ 0.609 2 3 cbr 500 ------- 0 1.0 3.1 79 96
- 0.60936 2 3 cbr 500 ------- 0 1.0 3.1 79 96
+ 0.61 1 2 cbr 500 ------- 0 1.0 3.1 82 99
- 0.61 1 2 cbr 500 ------- 0 1.0 3.1 82 99
r 0.61136 2 3 cbr 500 ------- 0 1.0 3.1 76 92
r 0.614 1 2 cbr 500 ------- 0 1.0 3.1 80 97
+ 0.614 2 3 cbr 500 ------- 0 1.0 3.1 80 97
- 0.614 2 3 cbr 500 ------- 0 1.0 3.1 80 97
r 0.61488 2 0 ack 40 ------- 1 3.0 0.0 5 95
+ 0.61488 0 2 tcp 1040 ------- 1 0.0 3.0 11 100
+ 0.61488 0 2 tcp 1040 ------- 1 0.0 3.0 12 101
+ 0.615 1 2 cbr 500 ------- 0 1.0 3.1 83 102
- 0.615 1 2 cbr 500 ------- 0 1.0 3.1 83 102
r 0.61536 2 3 cbr 500 ------- 0 1.0 3.1 77 93
r 0.619 1 2 cbr 500 ------- 0 1.0 3.1 81 98
+ 0.619 2 3 cbr 500 ------- 0 1.0 3.1 81 98
- 0.619 2 3 cbr 500 ------- 0 1.0 3.1 81 98
r 0.61936 2 3 cbr 500 ------- 0 1.0 3.1 78 94
+ 0.62 1 2 cbr 500 ------- 0 1.0 3.1 84 103
- 0.62 1 2 cbr 500 ------- 0 1.0 3.1 84 103
r 0.62336 2 3 cbr 500 ------- 0 1.0 3.1 79 96
r 0.624 1 2 cbr 500 ------- 0 1.0 3.1 82 99
+ 0.624 2 3 cbr 500 ------- 0 1.0 3.1 82 99
- 0.624 2 3 cbr 500 ------- 0 1.0 3.1 82 99
+ 0.625 1 2 cbr 500 ------- 0 1.0 3.1 85 104
- 0.625 1 2 cbr 500 ------- 0 1.0 3.1 85 104
r 0.628 2 3 cbr 500 ------- 0 1.0 3.1 80 97
r 0.629 1 2 cbr 500 ------- 0 1.0 3.1 83 102
+ 0.629 2 3 cbr 500 ------- 0 1.0 3.1 83 102
- 0.629 2 3 cbr 500 ------- 0 1.0 3.1 83 102
+ 0.63 1 2 cbr 500 ------- 0 1.0 3.1 86 105
- 0.63 1 2 cbr 500 ------- 0 1.0 3.1 86 105
r 0.633 2 3 cbr 500 ------- 0 1.0 3.1 81 98
r 0.634 1 2 cbr 500 ------- 0 1.0 3.1 84 103
+ 0.634 2 3 cbr 500 ------- 0 1.0 3.1 84 103
- 0.634 2 3 cbr 500 ------- 0 1.0 3.1 84 103
+ 0.635 1 2 cbr 500 ------- 0 1.0 3.1 87 106
- 0.635 1 2 cbr 500 ------- 0 1.0 3.1 87 106
r 0.638 2 3 cbr 500 ------- 0 1.0 3.1 82 99
r 0.639 1 2 cbr 500 ------- 0 1.0 3.1 85 104
+ 0.639 2 3 cbr 500 ------- 0 1.0 3.1 85 104
- 0.639 2 3 cbr 500 ------- 0 1.0 3.1 85 104
+ 0.64 1 2 cbr 500 ------- 0 1.0 3.1 88 107
- 0.64 1 2 cbr 500 ------- 0 1.0 3.1 88 107
r 0.643 2 3 cbr 500 ------- 0 1.0 3.1 83 102
r 0.644 1 2 cbr 500 ------- 0 1.0 3.1 86 105
+ 0.644 2 3 cbr 500 ------- 0 1.0 3.1 86 105
- 0.644 2 3 cbr 500 ------- 0 1.0 3.1 86 105
+ 0.645 1 2 cbr 500 ------- 0 1.0 3.1 89 108
- 0.645 1 2 cbr 500 ------- 0 1.0 3.1 89 108
- 0.64624 0 2 tcp 1040 ------- 1 0.0 3.0 7 61
r 0.648 2 3 cbr 500 ------- 0 1.0 3.1 84 103
r 0.649 1 2 cbr 500 ------- 0 1.0 3.1 87 106
+ 0.649 2 3 cbr 500 ------- 0 1.0 3.1 87 106
- 0.649 2 3 cbr 500 ------- 0 1.0 3.1 87 106
+ 0.65 1 2 cbr 500 ------- 0 1.0 3.1 90 109
- 0.65 1 2 cbr 500 ------- 0 1.0 3.1 90 109
r 0.653 2 3 cbr 500 ------- 0 1.0 3.1 85 104
r 0.654 1 2 cbr 500 ------- 0 1.0 3.1 88 107
+ 0.654 2 3 cbr 500 ------- 0 1.0 3.1 88 107
- 0.654 2 3 cbr 500 ------- 0 1.0 3.1 88 107
+ 0.655 1 2 cbr 500 ------- 0 1.0 3.1 91 110
- 0.655 1 2 cbr 500 ------- 0 1.0 3.1 91 110
r 0.65624 0 2 tcp 1040 ------- 1 0.0 3.0 6 43
+ 0.65624 2 3 tcp 1040 ------- 1 0.0 3.0 6 43
r 0.658 2 3 cbr 500 ------- 0 1.0 3.1 86 105
- 0.658 2 3 tcp 1040 ------- 1 0.0 3.0 6 43
r 0.659 1 2 cbr 500 ------- 0 1.0 3.1 89 108
+ 0.659 2 3 cbr 500 ------- 0 1.0 3.1 89 108
+ 0.66 1 2 cbr 500 ------- 0 1.0 3.1 92 111
- 0.66 1 2 cbr 500 ------- 0 1.0 3.1 92 111
r 0.663 2 3 cbr 500 ------- 0 1.0 3.1 87 106
r 0.664 1 2 cbr 500 ------- 0 1.0 3.1 90 109
+ 0.664 2 3 cbr 500 ------- 0 1.0 3.1 90 109
+ 0.665 1 2 cbr 500 ------- 0 1.0 3.1 93 112
- 0.665 1 2 cbr 500 ------- 0 1.0 3.1 93 112
- 0.66632 2 3 cbr 500 ------- 0 1.0 3.1 89 108
r 0.668 2 3 cbr 500 ------- 0 1.0 3.1 88 107
r 0.669 1 2 cbr 500 ------- 0 1.0 3.1 91 110
+ 0.669 2 3 cbr 500 ------- 0 1.0 3.1 91 110
+ 0.67 1 2 cbr 500 ------- 0 1.0 3.1 94 113
- 0.67 1 2 cbr 500 ------- 0 1.0 3.1 94 113
- 0.67032 2 3 cbr 500 ------- 0 1.0 3.1 90 109
r 0.674 1 2 cbr 500 ------- 0 1.0 3.1 92 111
+ 0.674 2 3 cbr 500 ------- 0 1.0 3.1 92 111
- 0.67432 2 3 cbr 500 ------- 0 1.0 3.1 91 110
+ 0.675 1 2 cbr 500 ------- 0 1.0 3.1 95 114
- 0.675 1 2 cbr 500 ------- 0 1.0 3.1 95 114
r 0.67632 2 3 tcp 1040 ------- 1 0.0 3.0 6 43
+ 0.67632 3 2 ack 40 ------- 1 3.0 0.0 6 115
- 0.67632 3 2 ack 40 ------- 1 3.0 0.0 6 115
- 0.67832 2 3 cbr 500 ------- 0 1.0 3.1 92 111
r 0.679 1 2 cbr 500 ------- 0 1.0 3.1 93 112
+ 0.679 2 3 cbr 500 ------- 0 1.0 3.1 93 112
+ 0.68 1 2 cbr 500 ------- 0 1.0 3.1 96 116
- 0.68 1 2 cbr 500 ------- 0 1.0 3.1 96 116
r 0.68032 2 3 cbr 500 ------- 0 1.0 3.1 89 108
- 0.68232 2 3 cbr 500 ------- 0 1.0 3.1 93 112
r 0.684 1 2 cbr 500 ------- 0 1.0 3.1 94 113
+ 0.684 2 3 cbr 500 ------- 0 1.0 3.1 94 113
r 0.68432 2 3 cbr 500 ------- 0 1.0 3.1 90 109
+ 0.685 1 2 cbr 500 ------- 0 1.0 3.1 97 117
- 0.685 1 2 cbr 500 ------- 0 1.0 3.1 97 117
- 0.68632 2 3 cbr 500 ------- 0 1.0 3.1 94 113
r 0.68664 3 2 ack 40 ------- 1 3.0 0.0 6 115
+ 0.68664 2 0 ack 40 ------- 1 3.0 0.0 6 115
- 0.68664 2 0 ack 40 ------- 1 3.0 0.0 6 115
r 0.68832 2 3 cbr 500 ------- 0 1.0 3.1 91 110
r 0.689 1 2 cbr 500 ------- 0 1.0 3.1 95 114
+ 0.689 2 3 cbr 500 ------- 0 1.0 3.1 95 114
+ 0.69 1 2 cbr 500 ------- 0 1.0 3.1 98 118
- 0.69 1 2 cbr 500 ------- 0 1.0 3.1 98 118
- 0.69032 2 3 cbr 500 ------- 0 1.0 3.1 95 114
r 0.69232 2 3 cbr 500 ------- 0 1.0 3.1 92 111
r 0.694 1 2 cbr 500 ------- 0 1.0 3.1 96 116
+ 0.694 2 3 cbr 500 ------- 0 1.0 3.1 96 116
- 0.69432 2 3 cbr 500 ------- 0 1.0 3.1 96 116
+ 0.695 1 2 cbr 500 ------- 0 1.0 3.1 99 119
- 0.695 1 2 cbr 500 ------- 0 1.0 3.1 99 119
r 0.69632 2 3 cbr 500 ------- 0 1.0 3.1 93 112
r 0.699 1 2 cbr 500 ------- 0 1.0 3.1 97 117
+ 0.699 2 3 cbr 500 ------- 0 1.0 3.1 97 117
- 0.699 2 3 cbr 500 ------- 0 1.0 3.1 97 117
r 0.69984 2 0 ack 40 ------- 1 3.0 0.0 6 115