+ 0 0 1 cbr 210 ------- 0 0.0 2.0 0 0
- 0 0 1 cbr 210 ------- 0 0.0 2.0 0 0
+ 0.00375 0 1 cbr 210 ------- 0 0.0 2.0 1 1
+ 0.0075 0 1 cbr 210 ------- 0 0.0 2.0 2 2
+ 0.01125 0 1 cbr 210 ------- 0 0.0 2.0 3 3
+ 0.015 0 1 cbr 210 ------- 0 0.0 2.0 4 4
+ 0.01875 0 1 cbr 210 ------- 0 0.0 2.0 5 5
+ 0.0225 0 1 cbr 210 ------- 0 0.0 2.0 6 6
+ 0.02625 0 1 cbr 210 ------- 0 0.0 2.0 7 7
+ 0.03 0 1 cbr 210 ------- 0 0.0 2.0 8 8
+ 0.03375 0 1 cbr 210 ------- 0 0.0 2.0 9 9
+ 0.0375 0 1 cbr 210 ------- 0 0.0 2.0 10 10
+ 0.04125 0 1 cbr 210 ------- 0 0.0 2.0 11 11
+ 0.045 0 1 cbr 210 ------- 0 0.0 2.0 12 12
+ 0.04875 0 1 cbr 210 ------- 0 0.0 2.0 13 13
+ 0.0525 0 1 cbr 210 ------- 0 0.0 2.0 14 14
+ 0.05625 0 1 cbr 210 ------- 0 0.0 2.0 15 15
+ 0.06 0 1 cbr 210 ------- 0 0.0 2.0 16 16
+ 0.06375 0 1 cbr 210 ------- 0 0.0 2.0 17 17
+ 0.0675 0 1 cbr 210 ------- 0 0.0 2.0 18 18
+ 0.07125 0 1 cbr 210 ------- 0 0.0 2.0 19 19
+ 0.075 0 1 cbr 210 ------- 0 0.0 2.0 20 20
+ 0.07875 0 1 cbr 210 ------- 0 0.0 2.0 21 21
+ 0.0825 0 1 cbr 210 ------- 0 0.0 2.0 22 22
+ 0.08625 0 1 cbr 210 ------- 0 0.0 2.0 23 23
+ 0.09 0 1 cbr 210 ------- 0 0.0 2.0 24 24
+ 0.09375 0 1 cbr 210 ------- 0 0.0 2.0 25 25
+ 0.0975 0 1 cbr 210 ------- 0 0.0 2.0 26 26
+ 0.10125 0 1 cbr 210 ------- 0 0.0 2.0 27 27
+ 0.105 0 1 cbr 210 ------- 0 0.0 2.0 28 28
+ 0.10875 0 1 cbr 210 ------- 0 0.0 2.0 29 29
+ 0.1125 0 1 cbr 210 ------- 0 0.0 2.0 30 30
+ 0.11625 0 1 cbr 210 ------- 0 0.0 2.0 31 31
+ 0.12 0 1 cbr 210 ------- 0 0.0 2.0 32 32
+ 0.12375 0 1 cbr 210 ------- 0 0.0 2.0 33 33
+ 0.1275 0 1 cbr 210 ------- 0 0.0 2.0 34 34
+ 0.13125 0 1 cbr 210 ------- 0 0.0 2.0 35 35
+ 0.135 0 1 cbr 210 ------- 0 0.0 2.0 36 36
+ 0.13875 0 1 cbr 210 ------- 0 0.0 2.0 37 37
+ 0.1425 0 1 cbr 210 ------- 0 0.0 2.0 38 38
+ 0.14625 0 1 cbr 210 ------- 0 0.0 2.0 39 39
+ 0.15 0 1 cbr 210 ------- 0 0.0 2.0 40 40
+ 0.15375 0 1 cbr 210 ------- 0 0.0 2.0 41 41
+ 0.1575 0 1 cbr 210 ------- 0 0.0 2.0 42 42
+ 0.16125 0 1 cbr 210 ------- 0 0.0 2.0 43 43
+ 0.165 0 1 cbr 210 ------- 0 0.0 2.0 44 44
+ 0.16875 0 1 cbr 210 ------- 0 0.0 2.0 45 45
+ 0.1725 0 1 cbr 210 ------- 0 0.0 2.0 46 46
+ 0.17625 0 1 cbr 210 ------- 0 0.0 2.0 47 47
+ 0.18 0 1 cbr 210 ------- 0 0.0 2.0 48 48
+ 0.18375 0 1 cbr 210 ------- 0 0.0 2.0 49 49
+ 0.1875 0 1 cbr 210 ------- 0 0.0 2.0 50 50
d 0.1875 0 1 cbr 210 ------- 0 0.0 2.0 50 50
+ 0.19125 0 1 cbr 210 ------- 0 0.0 2.0 51 51
d 0.19125 0 1 cbr 210 ------- 0 0.0 2.0 51 51
+ 0.195 0 1 cbr 210 ------- 0 0.0 2.0 52 52
d 0.195 0 1 cbr 210 ------- 0 0.0 2.0 52 52
+ 0.19875 0 1 cbr 210 ------- 0 0.0 2.0 53 53
d 0.19875 0 1 cbr 210 ------- 0 0.0 2.0 53 53
+ 0.2025 0 1 cbr 210 ------- 0 0.0 2.0 54 54
d 0.2025 0 1 cbr 210 ------- 0 0.0 2.0 54 54
+ 0.20625 0 1 cbr 210 ------- 0 0.0 2.0 55 55
d 0.20625 0 1 cbr 210 ------- 0 0.0 2.0 55 55
+ 0.21 0 1 cbr 210 ------- 0 0.0 2.0 56 56
d 0.21 0 1 cbr 210 ------- 0 0.0 2.0 56 56
+ 0.21375 0 1 cbr 210 ------- 0 0.0 2.0 57 57
d 0.21375 0 1 cbr 210 ------- 0 0.0 2.0 57 57
+ 0.2175 0 1 cbr 210 ------- 0 0.0 2.0 58 58
d 0.2175 0 1 cbr 210 ------- 0 0.0 2.0 58 58
+ 0.22125 0 1 cbr 210 ------- 0 0.0 2.0 59 59
d 0.22125 0 1 cbr 210 ------- 0 0.0 2.0 59 59
+ 0.225 0 1 cbr 210 ------- 0 0.0 2.0 60 60
d 0.225 0 1 cbr 210 ------- 0 0.0 2.0 60 60
+ 0.22875 0 1 cbr 210 ------- 0 0.0 2.0 61 61
d 0.22875 0 1 cbr 210 ------- 0 0.0 2.0 61 61
+ 0.2325 0 1 cbr 210 ------- 0 0.0 2.0 62 62
d 0.2325 0 1 cbr 210 ------- 0 0.0 2.0 62 62
+ 0.23625 0 1 cbr 210 ------- 0 0.0 2.0 63 63
d 0.23625 0 1 cbr 210 ------- 0 0.0 2.0 63 63
+ 0.24 0 1 cbr 210 ------- 0 0.0 2.0 64 64
d 0.24 0 1 cbr 210 ------- 0 0.0 2.0 64 64
+ 0.24375 0 1 cbr 210 ------- 0 0.0 2.0 65 65
d 0.24375 0 1 cbr 210 ------- 0 0.0 2.0 65 65
+ 0.2475 0 1 cbr 210 ------- 0 0.0 2.0 66 66
d 0.2475 0 1 cbr 210 ------- 0 0.0 2.0 66 66
+ 0.25125 0 1 cbr 210 ------- 0 0.0 2.0 67 67
d 0.25125 0 1 cbr 210 ------- 0 0.0 2.0 67 67
+ 0.255 0 1 cbr 210 ------- 0 0.0 2.0 68 68
d 0.255 0 1 cbr 210 ------- 0 0.0 2.0 68 68
+ 0.25875 0 1 cbr 210 ------- 0 0.0 2.0 69 69
d 0.25875 0 1 cbr 210 ------- 0 0.0 2.0 69 69
+ 0.2625 0 1 cbr 210 ------- 0 0.0 2.0 70 70
d 0.2625 0 1 cbr 210 ------- 0 0.0 2.0 70 70
+ 0.26625 0 1 cbr 210 ------- 0 0.0 2.0 71 71
d 0.26625 0 1 cbr 210 ------- 0 0.0 2.0 71 71
+ 0.27 0 1 cbr 210 ------- 0 0.0 2.0 72 72
d 0.27 0 1 cbr 210 ------- 0 0.0 2.0 72 72
+ 0.27375 0 1 cbr 210 ------- 0 0.0 2.0 73 73
d 0.27375 0 1 cbr 210 ------- 0 0.0 2.0 73 73
+ 0.2775 0 1 cbr 210 ------- 0 0.0 2.0 74 74
d 0.2775 0 1 cbr 210 ------- 0 0.0 2.0 74 74
+ 0.28125 0 1 cbr 210 ------- 0 0.0 2.0 75 75
d 0.28125 0 1 cbr 210 ------- 0 0.0 2.0 75 75
+ 0.285 0 1 cbr 210 ------- 0 0.0 2.0 76 76
d 0.285 0 1 cbr 210 ------- 0 0.0 2.0 76 76
+ 0.28875 0 1 cbr 210 ------- 0 0.0 2.0 77 77
d 0.28875 0 1 cbr 210 ------- 0 0.0 2.0 77 77
+ 0.2925 0 1 cbr 210 ------- 0 0.0 2.0 78 78
d 0.2925 0 1 cbr 210 ------- 0 0.0 2.0 78 78
+ 0.29625 0 1 cbr 210 ------- 0 0.0 2.0 79 79
d 0.29625 0 1 cbr 210 ------- 0 0.0 2.0 79 79
+ 0.3 0 1 cbr 210 ------- 0 0.0 2.0 80 80
d 0.3 0 1 cbr 210 ------- 0 0.0 2.0 80 80
+ 0.30375 0 1 cbr 210 ------- 0 0.0 2.0 81 81
d 0.30375 0 1 cbr 210 ------- 0 0.0 2.0 81 81
+ 0.3075 0 1 cbr 210 ------- 0 0.0 2.0 82 82
d 0.3075 0 1 cbr 210 ------- 0 0.0 2.0 82 82
+ 0.31125 0 1 cbr 210 ------- 0 0.0 2.0 83 83
d 0.31125 0 1 cbr 210 ------- 0 0.0 2.0 83 83
+ 0.315 0 1 cbr 210 ------- 0 0.0 2.0 84 84
d 0.315 0 1 cbr 210 ------- 0 0.0 2.0 84 84
+ 0.31875 0 1 cbr 210 ------- 0 0.0 2.0 85 85
d 0.31875 0 1 cbr 210 ------- 0 0.0 2.0 85 85
+ 0.3225 0 1 cbr 210 ------- 0 0.0 2.0 86 86
d 0.3225 0 1 cbr 210 ------- 0 0.0 2.0 86 86
+ 0.32625 0 1 cbr 210 ------- 0 0.0 2.0 87 87
d 0.32625 0 1 cbr 210 ------- 0 0.0 2.0 87 87
+ 0.33 0 1 cbr 210 ------- 0 0.0 2.0 88 88
d 0.33 0 1 cbr 210 ------- 0 0.0 2.0 88 88
+ 0.33375 0 1 cbr 210 ------- 0 0.0 2.0 89 89
d 0.33375 0 1 cbr 210 ------- 0 0.0 2.0 89 89
+ 0.3375 0 1 cbr 210 ------- 0 0.0 2.0 90 90
d 0.3375 0 1 cbr 210 ------- 0 0.0 2.0 90 90
+ 0.34125 0 1 cbr 210 ------- 0 0.0 2.0 91 91
d 0.34125 0 1 cbr 210 ------- 0 0.0 2.0 91 91
+ 0.345 0 1 cbr 210 ------- 0 0.0 2.0 92 92
d 0.345 0 1 cbr 210 ------- 0 0.0 2.0 92 92
+ 0.34875 0 1 cbr 210 ------- 0 0.0 2.0 93 93
d 0.34875 0 1 cbr 210 ------- 0 0.0 2.0 93 93
+ 0.3525 0 1 cbr 210 ------- 0 0.0 2.0 94 94
d 0.3525 0 1 cbr 210 ------- 0 0.0 2.0 94 94
+ 0.35625 0 1 cbr 210 ------- 0 0.0 2.0 95 95
d 0.35625 0 1 cbr 210 ------- 0 0.0 2.0 95 95
+ 0.36 0 1 cbr 210 ------- 0 0.0 2.0 96 96
d 0.36 0 1 cbr 210 ------- 0 0.0 2.0 96 96
+ 0.36375 0 1 cbr 210 ------- 0 0.0 2.0 97 97
d 0.36375 0 1 cbr 210 ------- 0 0.0 2.0 97 97
+ 0.3675 0 1 cbr 210 ------- 0 0.0 2.0 98 98
d 0.3675 0 1 cbr 210 ------- 0 0.0 2.0 98 98
+ 0.37125 0 1 cbr 210 ------- 0 0.0 2.0 99 99
d 0.37125 0 1 cbr 210 ------- 0 0.0 2.0 99 99
+ 0.375 0 1 cbr 210 ------- 0 0.0 2.0 100 100
d 0.375 0 1 cbr 210 ------- 0 0.0 2.0 100 100
+ 0.37875 0 1 cbr 210 ------- 0 0.0 2.0 101 101
d 0.37875 0 1 cbr 210 ------- 0 0.0 2.0 101 101
+ 0.3825 0 1 cbr 210 ------- 0 0.0 2.0 102 102
d 0.3825 0 1 cbr 210 ------- 0 0.0 2.0 102 102
+ 0.38625 0 1 cbr 210 ------- 0 0.0 2.0 103 103
d 0.38625 0 1 cbr 210 ------- 0 0.0 2.0 103 103
+ 0.39 0 1 cbr 210 ------- 0 0.0 2.0 104 104
d 0.39 0 1 cbr 210 ------- 0 0.0 2.0 104 104
+ 0.39375 0 1 cbr 210 ------- 0 0.0 2.0 105 105
d 0.39375 0 1 cbr 210 ------- 0 0.0 2.0 105 105
+ 0.3975 0 1 cbr 210 ------- 0 0.0 2.0 106 106
d 0.3975 0 1 cbr 210 ------- 0 0.0 2.0 106 106
+ 0.40125 0 1 cbr 210 ------- 0 0.0 2.0 107 107
d 0.40125 0 1 cbr 210 ------- 0 0.0 2.0 107 107
+ 0.405 0 1 cbr 210 ------- 0 0.0 2.0 108 108
d 0.405 0 1 cbr 210 ------- 0 0.0 2.0 108 108
+ 0.40875 0 1 cbr 210 ------- 0 0.0 2.0 109 109
d 0.40875 0 1 cbr 210 ------- 0 0.0 2.0 109 109
+ 0.4125 0 1 cbr 210 ------- 0 0.0 2.0 110 110
d 0.4125 0 1 cbr 210 ------- 0 0.0 2.0 110 110
+ 0.41625 0 1 cbr 210 ------- 0 0.0 2.0 111 111
d 0.41625 0 1 cbr 210 ------- 0 0.0 2.0 111 111
+ 0.42 0 1 cbr 210 ------- 0 0.0 2.0 112 112
d 0.42 0 1 cbr 210 ------- 0 0.0 2.0 112 112
+ 0.42375 0 1 cbr 210 ------- 0 0.0 2.0 113 113
d 0.42375 0 1 cbr 210 ------- 0 0.0 2.0 113 113
+ 0.4275 0 1 cbr 210 ------- 0 0.0 2.0 114 114
d 0.4275 0 1 cbr 210 ------- 0 0.0 2.0 114 114
+ 0.43125 0 1 cbr 210 ------- 0 0.0 2.0 115 115
d 0.43125 0 1 cbr 210 ------- 0 0.0 2.0 115 115
+ 0.435 0 1 cbr 210 ------- 0 0.0 2.0 116 116
d 0.435 0 1 cbr 210 ------- 0 0.0 2.0 116 116
+ 0.43875 0 1 cbr 210 ------- 0 0.0 2.0 117 117
d 0.43875 0 1 cbr 210 ------- 0 0.0 2.0 117 117
+ 0.4425 0 1 cbr 210 ------- 0 0.0 2.0 118 118
d 0.4425 0 1 cbr 210 ------- 0 0.0 2.0 118 118
+ 0.44625 0 1 cbr 210 ------- 0 0.0 2.0 119 119
d 0.44625 0 1 cbr 210 ------- 0 0.0 2.0 119 119
+ 0.45 0 1 cbr 210 ------- 0 0.0 2.0 120 120
d 0.45 0 1 cbr 210 ------- 0 0.0 2.0 120 120
+ 0.45375 0 1 cbr 210 ------- 0 0.0 2.0 121 121
d 0.45375 0 1 cbr 210 ------- 0 0.0 2.0 121 121
+ 0.4575 0 1 cbr 210 ------- 0 0.0 2.0 122 122
d 0.4575 0 1 cbr 210 ------- 0 0.0 2.0 122 122
+ 0.46125 0 1 cbr 210 ------- 0 0.0 2.0 123 123
d 0.46125 0 1 cbr 210 ------- 0 0.0 2.0 123 123
+ 0.465 0 1 cbr 210 ------- 0 0.0 2.0 124 124
d 0.465 0 1 cbr 210 ------- 0 0.0 2.0 124 124
+ 0.46875 0 1 cbr 210 ------- 0 0.0 2.0 125 125
d 0.46875 0 1 cbr 210 ------- 0 0.0 2.0 125 125
+ 0.4725 0 1 cbr 210 ------- 0 0.0 2.0 126 126
d 0.4725 0 1 cbr 210 ------- 0 0.0 2.0 126 126
+ 0.47625 0 1 cbr 210 ------- 0 0.0 2.0 127 127
d 0.47625 0 1 cbr 210 ------- 0 0.0 2.0 127 127
+ 0.48 0 1 cbr 210 ------- 0 0.0 2.0 128 128
d 0.48 0 1 cbr 210 ------- 0 0.0 2.0 128 128
+ 0.48375 0 1 cbr 210 ------- 0 0.0 2.0 129 129
d 0.48375 0 1 cbr 210 ------- 0 0.0 2.0 129 129
+ 0.4875 0 1 cbr 210 ------- 0 0.0 2.0 130 130
d 0.4875 0 1 cbr 210 ------- 0 0.0 2.0 130 130
+ 0.49125 0 1 cbr 210 ------- 0 0.0 2.0 131 131
d 0.49125 0 1 cbr 210 ------- 0 0.0 2.0 131 131
+ 0.495 0 1 cbr 210 ------- 0 0.0 2.0 132 132
d 0.495 0 1 cbr 210 ------- 0 0.0 2.0 132 132
+ 0.49875 0 1 cbr 210 ------- 0 0.0 2.0 133 133
d 0.49875 0 1 cbr 210 ------- 0 0.0 2.0 133 133
+ 0.5025 0 1 cbr 210 ------- 0 0.0 2.0 134 134
d 0.5025 0 1 cbr 210 ------- 0 0.0 2.0 134 134
+ 0.50625 0 1 cbr 210 ------- 0 0.0 2.0 135 135
d 0.50625 0 1 cbr 210 ------- 0 0.0 2.0 135 135
+ 0.51 0 1 cbr 210 ------- 0 0.0 2.0 136 136
d 0.51 0 1 cbr 210 ------- 0 0.0 2.0 136 136
+ 0.51375 0 1 cbr 210 ------- 0 0.0 2.0 137 137
d 0.51375 0 1 cbr 210 ------- 0 0.0 2.0 137 137
+ 0.5175 0 1 cbr 210 ------- 0 0.0 2.0 138 138
d 0.5175 0 1 cbr 210 ------- 0 0.0 2.0 138 138
+ 0.52125 0 1 cbr 210 ------- 0 0.0 2.0 139 139
d 0.52125 0 1 cbr 210 ------- 0 0.0 2.0 139 139
+ 0.525 0 1 cbr 210 ------- 0 0.0 2.0 140 140
d 0.525 0 1 cbr 210 ------- 0 0.0 2.0 140 140
+ 0.52875 0 1 cbr 210 ------- 0 0.0 2.0 141 141
d 0.52875 0 1 cbr 210 ------- 0 0.0 2.0 141 141
+ 0.5325 0 1 cbr 210 ------- 0 0.0 2.0 142 142
d 0.5325 0 1 cbr 210 ------- 0 0.0 2.0 142 142
+ 0.53625 0 1 cbr 210 ------- 0 0.0 2.0 143 143
d 0.53625 0 1 cbr 210 ------- 0 0.0 2.0 143 143
+ 0.54 0 1 cbr 210 ------- 0 0.0 2.0 144 144
d 0.54 0 1 cbr 210 ------- 0 0.0 2.0 144 144
+ 0.54375 0 1 cbr 210 ------- 0 0.0 2.0 145 145
d 0.54375 0 1 cbr 210 ------- 0 0.0 2.0 145 145
+ 0.5475 0 1 cbr 210 ------- 0 0.0 2.0 146 146
d 0.5475 0 1 cbr 210 ------- 0 0.0 2.0 146 146
+ 0.55125 0 1 cbr 210 ------- 0 0.0 2.0 147 147
d 0.55125 0 1 cbr 210 ------- 0 0.0 2.0 147 147
+ 0.555 0 1 cbr 210 ------- 0 0.0 2.0 148 148
d 0.555 0 1 cbr 210 ------- 0 0.0 2.0 148 148
+ 0.55875 0 1 cbr 210 ------- 0 0.0 2.0 149 149
d 0.55875 0 1 cbr 210 ------- 0 0.0 2.0 149 149
+ 0.5625 0 1 cbr 210 ------- 0 0.0 2.0 150 150
d 0.5625 0 1 cbr 210 ------- 0 0.0 2.0 150 150
+ 0.56625 0 1 cbr 210 ------- 0 0.0 2.0 151 151
d 0.56625 0 1 cbr 210 ------- 0 0.0 2.0 151 151
+ 0.57 0 1 cbr 210 ------- 0 0.0 2.0 152 152
d 0.57 0 1 cbr 210 ------- 0 0.0 2.0 152 152
+ 0.57375 0 1 cbr 210 ------- 0 0.0 2.0 153 153
d 0.57375 0 1 cbr 210 ------- 0 0.0 2.0 153 153
+ 0.5775 0 1 cbr 210 ------- 0 0.0 2.0 154 154
d 0.5775 0 1 cbr 210 ------- 0 0.0 2.0 154 154
+ 0.58125 0 1 cbr 210 ------- 0 0.0 2.0 155 155
d 0.58125 0 1 cbr 210 ------- 0 0.0 2.0 155 155
+ 0.585 0 1 cbr 210 ------- 0 0.0 2.0 156 156
d 0.585 0 1 cbr 210 ------- 0 0.0 2.0 156 156
+ 0.58875 0 1 cbr 210 ------- 0 0.0 2.0 157 157
d 0.58875 0 1 cbr 210 ------- 0 0.0 2.0 157 157
+ 0.5925 0 1 cbr 210 ------- 0 0.0 2.0 158 158
d 0.5925 0 1 cbr 210 ------- 0 0.0 2.0 158 158
+ 0.59625 0 1 cbr 210 ------- 0 0.0 2.0 159 159
d 0.59625 0 1 cbr 210 ------- 0 0.0 2.0 159 159
+ 0.6 0 1 cbr 210 ------- 0 0.0 2.0 160 160
d 0.6 0 1 cbr 210 ------- 0 0.0 2.0 160 160
+ 0.60375 0 1 cbr 210 ------- 0 0.0 2.0 161 161
d 0.60375 0 1 cbr 210 ------- 0 0.0 2.0 161 161
+ 0.6075 0 1 cbr 210 ------- 0 0.0 2.0 162 162
d 0.6075 0 1 cbr 210 ------- 0 0.0 2.0 162 162
+ 0.61125 0 1 cbr 210 ------- 0 0.0 2.0 163 163
d 0.61125 0 1 cbr 210 ------- 0 0.0 2.0 163 163
+ 0.615 0 1 cbr 210 ------- 0 0.0 2.0 164 164
d 0.615 0 1 cbr 210 ------- 0 0.0 2.0 164 164
+ 0.61875 0 1 cbr 210 ------- 0 0.0 2.0 165 165
d 0.61875 0 1 cbr 210 ------- 0 0.0 2.0 165 165
+ 0.6225 0 1 cbr 210 ------- 0 0.0 2.0 166 166
d 0.6225 0 1 cbr 210 ------- 0 0.0 2.0 166 166
+ 0.62625 0 1 cbr 210 ------- 0 0.0 2.0 167 167
d 0.62625 0 1 cbr 210 ------- 0 0.0 2.0 167 167
+ 0.63 0 1 cbr 210 ------- 0 0.0 2.0 168 168
d 0.63 0 1 cbr 210 ------- 0 0.0 2.0 168 168
+ 0.63375 0 1 cbr 210 ------- 0 0.0 2.0 169 169
d 0.63375 0 1 cbr 210 ------- 0 0.0 2.0 169 169
+ 0.6375 0 1 cbr 210 ------- 0 0.0 2.0 170 170
d 0.6375 0 1 cbr 210 ------- 0 0.0 2.0 170 170
+ 0.64125 0 1 cbr 210 ------- 0 0.0 2.0 171 171
d 0.64125 0 1 cbr 210 ------- 0 0.0 2.0 171 171
+ 0.645 0 1 cbr 210 ------- 0 0.0 2.0 172 172
d 0.645 0 1 cbr 210 ------- 0 0.0 2.0 172 172
+ 0.64875 0 1 cbr 210 ------- 0 0.0 2.0 173 173
d 0.64875 0 1 cbr 210 ------- 0 0.0 2.0 173 173
+ 0.6525 0 1 cbr 210 ------- 0 0.0 2.0 174 174
d 0.6525 0 1 cbr 210 ------- 0 0.0 2.0 174 174
+ 0.65625 0 1 cbr 210 ------- 0 0.0 2.0 175 175
d 0.65625 0 1 cbr 210 ------- 0 0.0 2.0 175 175
+ 0.66 0 1 cbr 210 ------- 0 0.0 2.0 176 176
d 0.66 0 1 cbr 210 ------- 0 0.0 2.0 176 176
+ 0.66375 0 1 cbr 210 ------- 0 0.0 2.0 177 177
d 0.66375 0 1 cbr 210 ------- 0 0.0 2.0 177 177
+ 0.6675 0 1 cbr 210 ------- 0 0.0 2.0 178 178
d 0.6675 0 1 cbr 210 ------- 0 0.0 2.0 178 178
+ 0.67125 0 1 cbr 210 ------- 0 0.0 2.0 179 179
d 0.67125 0 1 cbr 210 ------- 0 0.0 2.0 179 179
+ 0.675 0 1 cbr 210 ------- 0 0.0 2.0 180 180
d 0.675 0 1 cbr 210 ------- 0 0.0 2.0 180 180
+ 0.67875 0 1 cbr 210 ------- 0 0.0 2.0 181 181
d 0.67875 0 1 cbr 210 ------- 0 0.0 2.0 181 181
+ 0.6825 0 1 cbr 210 ------- 0 0.0 2.0 182 182
d 0.6825 0 1 cbr 210 ------- 0 0.0 2.0 182 182
+ 0.68625 0 1 cbr 210 ------- 0 0.0 2.0 183 183
d 0.68625 0 1 cbr 210 ------- 0 0.0 2.0 183 183
+ 0.69 0 1 cbr 210 ------- 0 0.0 2.0 184 184
d 0.69 0 1 cbr 210 ------- 0 0.0 2.0 184 184
+ 0.69375 0 1 cbr 210 ------- 0 0.0 2.0 185 185
d 0.69375 0 1 cbr 210 ------- 0 0.0 2.0 185 185
+ 0.6975 0 1 cbr 210 ------- 0 0.0 2.0 186 186
d 0.6975 0 1 cbr 210 ------- 0 0.0 2.0 186 186
+ 0.70125 0 1 cbr 210 ------- 0 0.0 2.0 187 187
d 0.70125 0 1 cbr 210 ------- 0 0.0 2.0 187 187
+ 0.705 0 1 cbr 210 ------- 0 0.0 2.0 188 188
d 0.705 0 1 cbr 210 ------- 0 0.0 2.0 188 188
+ 0.70875 0 1 cbr 210 ------- 0 0.0 2.0 189 189
d 0.70875 0 1 cbr 210 ------- 0 0.0 2.0 189 189
+ 0.7125 0 1 cbr 210 ------- 0 0.0 2.0 190 190
d 0.7125 0 1 cbr 210 ------- 0 0.0 2.0 190 190
+ 0.71625 0 1 cbr 210 ------- 0 0.0 2.0 191 191
d 0.71625 0 1 cbr 210 ------- 0 0.0 2.0 191 191
+ 0.72 0 1 cbr 210 ------- 0 0.0 2.0 192 192
d 0.72 0 1 cbr 210 ------- 0 0.0 2.0 192 192
+ 0.72375 0 1 cbr 210 ------- 0 0.0 2.0 193 193
d 0.72375 0 1 cbr 210 ------- 0 0.0 2.0 193 193
+ 0.7275 0 1 cbr 210 ------- 0 0.0 2.0 194 194
d 0.7275 0 1 cbr 210 ------- 0 0.0 2.0 194 194
+ 0.73125 0 1 cbr 210 ------- 0 0.0 2.0 195 195
d 0.73125 0 1 cbr 210 ------- 0 0.0 2.0 195 195
+ 0.735 0 1 cbr 210 ------- 0 0.0 2.0 196 196
d 0.735 0 1 cbr 210 ------- 0 0.0 2.0 196 196
+ 0.73875 0 1 cbr 210 ------- 0 0.0 2.0 197 197
d 0.73875 0 1 cbr 210 ------- 0 0.0 2.0 197 197
+ 0.7425 0 1 cbr 210 ------- 0 0.0 2.0 198 198
d 0.7425 0 1 cbr 210 ------- 0 0.0 2.0 198 198
+ 0.74625 0 1 cbr 210 ------- 0 0.0 2.0 199 199
d 0.74625 0 1 cbr 210 ------- 0 0.0 2.0 199 199
+ 0.75 0 1 cbr 210 ------- 0 0.0 2.0 200 200
d 0.75 0 1 cbr 210 ------- 0 0.0 2.0 200 200
+ 0.75375 0 1 cbr 210 ------- 0 0.0 2.0 201 201
d 0.75375 0 1 cbr 210 ------- 0 0.0 2.0 201 201
+ 0.7575 0 1 cbr 210 ------- 0 0.0 2.0 202 202
d 0.7575 0 1 cbr 210 ------- 0 0.0 2.0 202 202
+ 0.76125 0 1 cbr 210 ------- 0 0.0 2.0 203 203
d 0.76125 0 1 cbr 210 ------- 0 0.0 2.0 203 203
+ 0.765 0 1 cbr 210 ------- 0 0.0 2.0 204 204
d 0.765 0 1 cbr 210 ------- 0 0.0 2.0 204 204
+ 0.76875 0 1 cbr 210 ------- 0 0.0 2.0 205 205
d 0.76875 0 1 cbr 210 ------- 0 0.0 2.0 205 205
+ 0.7725 0 1 cbr 210 ------- 0 0.0 2.0 206 206
d 0.7725 0 1 cbr 210 ------- 0 0.0 2.0 206 206
+ 0.77625 0 1 cbr 210 ------- 0 0.0 2.0 207 207
d 0.77625 0 1 cbr 210 ------- 0 0.0 2.0 207 207
+ 0.78 0 1 cbr 210 ------- 0 0.0 2.0 208 208
d 0.78 0 1 cbr 210 ------- 0 0.0 2.0 208 208
+ 0.78375 0 1 cbr 210 ------- 0 0.0 2.0 209 209
d 0.78375 0 1 cbr 210 ------- 0 0.0 2.0 209 209
+ 0.7875 0 1 cbr 210 ------- 0 0.0 2.0 210 210
d 0.7875 0 1 cbr 210 ------- 0 0.0 2.0 210 210
+ 0.79125 0 1 cbr 210 ------- 0 0.0 2.0 211 211
d 0.79125 0 1 cbr 210 ------- 0 0.0 2.0 211 211
+ 0.795 0 1 cbr 210 ------- 0 0.0 2.0 212 212
d 0.795 0 1 cbr 210 ------- 0 0.0 2.0 212 212
+ 0.79875 0 1 cbr 210 ------- 0 0.0 2.0 213 213
d 0.79875 0 1 cbr 210 ------- 0 0.0 2.0 213 213
+ 0.8025 0 1 cbr 210 ------- 0 0.0 2.0 214 214
d 0.8025 0 1 cbr 210 ------- 0 0.0 2.0 214 214
+ 0.80625 0 1 cbr 210 ------- 0 0.0 2.0 215 215
d 0.80625 0 1 cbr 210 ------- 0 0.0 2.0 215 215
+ 0.81 0 1 cbr 210 ------- 0 0.0 2.0 216 216
d 0.81 0 1 cbr 210 ------- 0 0.0 2.0 216 216
+ 0.81375 0 1 cbr 210 ------- 0 0.0 2.0 217 217
d 0.81375 0 1 cbr 210 ------- 0 0.0 2.0 217 217
+ 0.8175 0 1 cbr 210 ------- 0 0.0 2.0 218 218
d 0.8175 0 1 cbr 210 ------- 0 0.0 2.0 218 218
+ 0.82125 0 1 cbr 210 ------- 0 0.0 2.0 219 219
d 0.82125 0 1 cbr 210 ------- 0 0.0 2.0 219 219
+ 0.825 0 1 cbr 210 ------- 0 0.0 2.0 220 220
d 0.825 0 1 cbr 210 ------- 0 0.0 2.0 220 220
+ 0.82875 0 1 cbr 210 ------- 0 0.0 2.0 221 221
d 0.82875 0 1 cbr 210 ------- 0 0.0 2.0 221 221
+ 0.8325 0 1 cbr 210 ------- 0 0.0 2.0 222 222
d 0.8325 0 1 cbr 210 ------- 0 0.0 2.0 222 222
+ 0.83625 0 1 cbr 210 ------- 0 0.0 2.0 223 223
d 0.83625 0 1 cbr 210 ------- 0 0.0 2.0 223 223
+ 0.84 0 1 cbr 210 ------- 0 0.0 2.0 224 224
d 0.84 0 1 cbr 210 ------- 0 0.0 2.0 224 224
+ 0.84375 0 1 cbr 210 ------- 0 0.0 2.0 225 225
d 0.84375 0 1 cbr 210 ------- 0 0.0 2.0 225 225
+ 0.8475 0 1 cbr 210 ------- 0 0.0 2.0 226 226
d 0.8475 0 1 cbr 210 ------- 0 0.0 2.0 226 226
+ 0.85125 0 1 cbr 210 ------- 0 0.0 2.0 227 227
d 0.85125 0 1 cbr 210 ------- 0 0.0 2.0 227 227
+ 0.855 0 1 cbr 210 ------- 0 0.0 2.0 228 228
d 0.855 0 1 cbr 210 ------- 0 0.0 2.0 228 228
+ 0.85875 0 1 cbr 210 ------- 0 0.0 2.0 229 229
d 0.85875 0 1 cbr 210 ------- 0 0.0 2.0 229 229
+ 0.8625 0 1 cbr 210 ------- 0 0.0 2.0 230 230
d 0.8625 0 1 cbr 210 ------- 0 0.0 2.0 230 230
+ 0.86625 0 1 cbr 210 ------- 0 0.0 2.0 231 231
d 0.86625 0 1 cbr 210 ------- 0 0.0 2.0 231 231
+ 0.87 0 1 cbr 210 ------- 0 0.0 2.0 232 232
d 0.87 0 1 cbr 210 ------- 0 0.0 2.0 232 232
+ 0.87375 0 1 cbr 210 ------- 0 0.0 2.0 233 233
d 0.87375 0 1 cbr 210 ------- 0 0.0 2.0 233 233
+ 0.8775 0 1 cbr 210 ------- 0 0.0 2.0 234 234
d 0.8775 0 1 cbr 210 ------- 0 0.0 2.0 234 234
+ 0.88125 0 1 cbr 210 ------- 0 0.0 2.0 235 235
d 0.88125 0 1 cbr 210 ------- 0 0.0 2.0 235 235
+ 0.885 0 1 cbr 210 ------- 0 0.0 2.0 236 236
d 0.885 0 1 cbr 210 ------- 0 0.0 2.0 236 236
+ 0.88875 0 1 cbr 210 ------- 0 0.0 2.0 237 237
d 0.88875 0 1 cbr 210 ------- 0 0.0 2.0 237 237
+ 0.8925 0 1 cbr 210 ------- 0 0.0 2.0 238 238
d 0.8925 0 1 cbr 210 ------- 0 0.0 2.0 238 238
+ 0.89625 0 1 cbr 210 ------- 0 0.0 2.0 239 239
d 0.89625 0 1 cbr 210 ------- 0 0.0 2.0 239 239
+ 0.9 0 1 cbr 210 ------- 0 0.0 2.0 240 240
d 0.9 0 1 cbr 210 ------- 0 0.0 2.0 240 240
+ 0.90375 0 1 cbr 210 ------- 0 0.0 2.0 241 241
d 0.90375 0 1 cbr 210 ------- 0 0.0 2.0 241 241
+ 0.9075 0 1 cbr 210 ------- 0 0.0 2.0 242 242
d 0.9075 0 1 cbr 210 ------- 0 0.0 2.0 242 242
+ 0.91125 0 1 cbr 210 ------- 0 0.0 2.0 243 243
d 0.91125 0 1 cbr 210 ------- 0 0.0 2.0 243 243
+ 0.915 0 1 cbr 210 ------- 0 0.0 2.0 244 244
d 0.915 0 1 cbr 210 ------- 0 0.0 2.0 244 244
+ 0.91875 0 1 cbr 210 ------- 0 0.0 2.0 245 245
d 0.91875 0 1 cbr 210 ------- 0 0.0 2.0 245 245
+ 0.9225 0 1 cbr 210 ------- 0 0.0 2.0 246 246
d 0.9225 0 1 cbr 210 ------- 0 0.0 2.0 246 246
+ 0.92625 0 1 cbr 210 ------- 0 0.0 2.0 247 247
d 0.92625 0 1 cbr 210 ------- 0 0.0 2.0 247 247
+ 0.93 0 1 cbr 210 ------- 0 0.0 2.0 248 248
d 0.93 0 1 cbr 210 ------- 0 0.0 2.0 248 248
+ 0.93375 0 1 cbr 210 ------- 0 0.0 2.0 249 249
d 0.93375 0 1 cbr 210 ------- 0 0.0 2.0 249 249
+ 0.9375 0 1 cbr 210 ------- 0 0.0 2.0 250 250
d 0.9375 0 1 cbr 210 ------- 0 0.0 2.0 250 250
+ 0.94125 0 1 cbr 210 ------- 0 0.0 2.0 251 251
d 0.94125 0 1 cbr 210 ------- 0 0.0 2.0 251 251
+ 0.945 0 1 cbr 210 ------- 0 0.0 2.0 252 252
d 0.945 0 1 cbr 210 ------- 0 0.0 2.0 252 252
+ 0.94875 0 1 cbr 210 ------- 0 0.0 2.0 253 253
d 0.94875 0 1 cbr 210 ------- 0 0.0 2.0 253 253
+ 0.9525 0 1 cbr 210 ------- 0 0.0 2.0 254 254
d 0.9525 0 1 cbr 210 ------- 0 0.0 2.0 254 254
+ 0.95625 0 1 cbr 210 ------- 0 0.0 2.0 255 255
d 0.95625 0 1 cbr 210 ------- 0 0.0 2.0 255 255
+ 0.96 0 1 cbr 210 ------- 0 0.0 2.0 256 256
d 0.96 0 1 cbr 210 ------- 0 0.0 2.0 256 256
+ 0.96375 0 1 cbr 210 ------- 0 0.0 2.0 257 257
d 0.96375 0 1 cbr 210 ------- 0 0.0 2.0 257 257
+ 0.9675 0 1 cbr 210 ------- 0 0.0 2.0 258 258
d 0.9675 0 1 cbr 210 ------- 0 0.0 2.0 258 258
+ 0.97125 0 1 cbr 210 ------- 0 0.0 2.0 259 259
d 0.97125 0 1 cbr 210 ------- 0 0.0 2.0 259 259
+ 0.975 0 1 cbr 210 ------- 0 0.0 2.0 260 260
d 0.975 0 1 cbr 210 ------- 0 0.0 2.0 260 260
+ 0.97875 0 1 cbr 210 ------- 0 0.0 2.0 261 261
d 0.97875 0 1 cbr 210 ------- 0 0.0 2.0 261 261
+ 0.9825 0 1 cbr 210 ------- 0 0.0 2.0 262 262
d 0.9825 0 1 cbr 210 ------- 0 0.0 2.0 262 262
+ 0.98625 0 1 cbr 210 ------- 0 0.0 2.0 263 263
d 0.98625 0 1 cbr 210 ------- 0 0.0 2.0 263 263
+ 0.99 0 1 cbr 210 ------- 0 0.0 2.0 264 264
d 0.99 0 1 cbr 210 ------- 0 0.0 2.0 264 264
+ 0.99375 0 1 cbr 210 ------- 0 0.0 2.0 265 265
d 0.99375 0 1 cbr 210 ------- 0 0.0 2.0 265 265
+ 0.9975 0 1 cbr 210 ------- 0 0.0 2.0 266 266
d 0.9975 0 1 cbr 210 ------- 0 0.0 2.0 266 266
+ 1.00125 0 1 cbr 210 ------- 0 0.0 2.0 267 267
d 1.00125 0 1 cbr 210 ------- 0 0.0 2.0 267 267
+ 1.005 0 1 cbr 210 ------- 0 0.0 2.0 268 268
d 1.005 0 1 cbr 210 ------- 0 0.0 2.0 268 268
+ 1.00875 0 1 cbr 210 ------- 0 0.0 2.0 269 269
d 1.00875 0 1 cbr 210 ------- 0 0.0 2.0 269 269
+ 1.0125 0 1 cbr 210 ------- 0 0.0 2.0 270 270
d 1.0125 0 1 cbr 210 ------- 0 0.0 2.0 270 270
+ 1.01625 0 1 cbr 210 ------- 0 0.0 2.0 271 271
d 1.01625 0 1 cbr 210 ------- 0 0.0 2.0 271 271
+ 1.02 0 1 cbr 210 ------- 0 0.0 2.0 272 272
d 1.02 0 1 cbr 210 ------- 0 0.0 2.0 272 272
+ 1.02375 0 1 cbr 210 ------- 0 0.0 2.0 273 273
d 1.02375 0 1 cbr 210 ------- 0 0.0 2.0 273 273
+ 1.0275 0 1 cbr 210 ------- 0 0.0 2.0 274 274
d 1.0275 0 1 cbr 210 ------- 0 0.0 2.0 274 274
+ 1.03125 0 1 cbr 210 ------- 0 0.0 2.0 275 275
d 1.03125 0 1 cbr 210 ------- 0 0.0 2.0 275 275
+ 1.035 0 1 cbr 210 ------- 0 0.0 2.0 276 276
d 1.035 0 1 cbr 210 ------- 0 0.0 2.0 276 276
+ 1.03875 0 1 cbr 210 ------- 0 0.0 2.0 277 277
d 1.03875 0 1 cbr 210 ------- 0 0.0 2.0 277 277
+ 1.0425 0 1 cbr 210 ------- 0 0.0 2.0 278 278
d 1.0425 0 1 cbr 210 ------- 0 0.0 2.0 278 278
+ 1.04625 0 1 cbr 210 ------- 0 0.0 2.0 279 279
d 1.04625 0 1 cbr 210 ------- 0 0.0 2.0 279 279
+ 1.05 0 1 cbr 210 ------- 0 0.0 2.0 280 280
d 1.05 0 1 cbr 210 ------- 0 0.0 2.0 280 280
+ 1.05375 0 1 cbr 210 ------- 0 0.0 2.0 281 281
d 1.05375 0 1 cbr 210 ------- 0 0.0 2.0 281 281
+ 1.0575 0 1 cbr 210 ------- 0 0.0 2.0 282 282
d 1.0575 0 1 cbr 210 ------- 0 0.0 2.0 282 282
+ 1.06125 0 1 cbr 210 ------- 0 0.0 2.0 283 283
d 1.06125 0 1 cbr 210 ------- 0 0.0 2.0 283 283
+ 1.065 0 1 cbr 210 ------- 0 0.0 2.0 284 284
d 1.065 0 1 cbr 210 ------- 0 0.0 2.0 284 284
+ 1.06875 0 1 cbr 210 ------- 0 0.0 2.0 285 285
d 1.06875 0 1 cbr 210 ------- 0 0.0 2.0 285 285
+ 1.0725 0 1 cbr 210 ------- 0 0.0 2.0 286 286
d 1.0725 0 1 cbr 210 ------- 0 0.0 2.0 286 286
+ 1.07625 0 1 cbr 210 ------- 0 0.0 2.0 287 287
d 1.07625 0 1 cbr 210 ------- 0 0.0 2.0 287 287
+ 1.08 0 1 cbr 210 ------- 0 0.0 2.0 288 288
d 1.08 0 1 cbr 210 ------- 0 0.0 2.0 288 288
+ 1.08375 0 1 cbr 210 ------- 0 0.0 2.0 289 289
d 1.08375 0 1 cbr 210 ------- 0 0.0 2.0 289 289
+ 1.0875 0 1 cbr 210 ------- 0 0.0 2.0 290 290
d 1.0875 0 1 cbr 210 ------- 0 0.0 2.0 290 290
+ 1.09125 0 1 cbr 210 ------- 0 0.0 2.0 291 291
d 1.09125 0 1 cbr 210 ------- 0 0.0 2.0 291 291
+ 1.095 0 1 cbr 210 ------- 0 0.0 2.0 292 292
d 1.095 0 1 cbr 210 ------- 0 0.0 2.0 292 292
+ 1.09875 0 1 cbr 210 ------- 0 0.0 2.0 293 293
d 1.09875 0 1 cbr 210 ------- 0 0.0 2.0 293 293
+ 1.1025 0 1 cbr 210 ------- 0 0.0 2.0 294 294
d 1.1025 0 1 cbr 210 ------- 0 0.0 2.0 294 294
+ 1.10625 0 1 cbr 210 ------- 0 0.0 2.0 295 295
d 1.10625 0 1 cbr 210 ------- 0 0.0 2.0 295 295
+ 1.11 0 1 cbr 210 ------- 0 0.0 2.0 296 296
d 1.11 0 1 cbr 210 ------- 0 0.0 2.0 296 296
+ 1.11375 0 1 cbr 210 ------- 0 0.0 2.0 297 297
d 1.11375 0 1 cbr 210 ------- 0 0.0 2.0 297 297
+ 1.1175 0 1 cbr 210 ------- 0 0.0 2.0 298 298
d 1.1175 0 1 cbr 210 ------- 0 0.0 2.0 298 298
+ 1.12125 0 1 cbr 210 ------- 0 0.0 2.0 299 299
d 1.12125 0 1 cbr 210 ------- 0 0.0 2.0 299 299
+ 1.125 0 1 cbr 210 ------- 0 0.0 2.0 300 300
d 1.125 0 1 cbr 210 ------- 0 0.0 2.0 300 300
+ 1.12875 0 1 cbr 210 ------- 0 0.0 2.0 301 301
d 1.12875 0 1 cbr 210 ------- 0 0.0 2.0 301 301
+ 1.1325 0 1 cbr 210 ------- 0 0.0 2.0 302 302
d 1.1325 0 1 cbr 210 ------- 0 0.0 2.0 302 302
+ 1.13625 0 1 cbr 210 ------- 0 0.0 2.0 303 303
d 1.13625 0 1 cbr 210 ------- 0 0.0 2.0 303 303
+ 1.14 0 1 cbr 210 ------- 0 0.0 2.0 304 304
d 1.14 0 1 cbr 210 ------- 0 0.0 2.0 304 304
+ 1.14375 0 1 cbr 210 ------- 0 0.0 2.0 305 305
d 1.14375 0 1 cbr 210 ------- 0 0.0 2.0 305 305
+ 1.1475 0 1 cbr 210 ------- 0 0.0 2.0 306 306
d 1.1475 0 1 cbr 210 ------- 0 0.0 2.0 306 306
+ 1.15125 0 1 cbr 210 ------- 0 0.0 2.0 307 307
d 1.15125 0 1 cbr 210 ------- 0 0.0 2.0 307 307
+ 1.155 0 1 cbr 210 ------- 0 0.0 2.0 308 308
d 1.155 0 1 cbr 210 ------- 0 0.0 2.0 308 308
+ 1.15875 0 1 cbr 210 ------- 0 0.0 2.0 309 309
d 1.15875 0 1 cbr 210 ------- 0 0.0 2.0 309 309
+ 1.1625 0 1 cbr 210 ------- 0 0.0 2.0 310 310
d 1.1625 0 1 cbr 210 ------- 0 0.0 2.0 310 310
+ 1.16625 0 1 cbr 210 ------- 0 0.0 2.0 311 311
d 1.16625 0 1 cbr 210 ------- 0 0.0 2.0 311 311
+ 1.17 0 1 cbr 210 ------- 0 0.0 2.0 312 312
d 1.17 0 1 cbr 210 ------- 0 0.0 2.0 312 312
+ 1.17375 0 1 cbr 210 ------- 0 0.0 2.0 313 313
d 1.17375 0 1 cbr 210 ------- 0 0.0 2.0 313 313
+ 1.1775 0 1 cbr 210 ------- 0 0.0 2.0 314 314
d 1.1775 0 1 cbr 210 ------- 0 0.0 2.0 314 314
+ 1.18125 0 1 cbr 210 ------- 0 0.0 2.0 315 315
d 1.18125 0 1 cbr 210 ------- 0 0.0 2.0 315 315
+ 1.185 0 1 cbr 210 ------- 0 0.0 2.0 316 316
d 1.185 0 1 cbr 210 ------- 0 0.0 2.0 316 316
+ 1.18875 0 1 cbr 210 ------- 0 0.0 2.0 317 317
d 1.18875 0 1 cbr 210 ------- 0 0.0 2.0 317 317
+ 1.1925 0 1 cbr 210 ------- 0 0.0 2.0 318 318
d 1.1925 0 1 cbr 210 ------- 0 0.0 2.0 318 318
+ 1.19625 0 1 cbr 210 ------- 0 0.0 2.0 319 319
d 1.19625 0 1 cbr 210 ------- 0 0.0 2.0 319 319
+ 1.2 0 1 cbr 210 ------- 0 0.0 2.0 320 320
d 1.2 0 1 cbr 210 ------- 0 0.0 2.0 320 320
+ 1.20375 0 1 cbr 210 ------- 0 0.0 2.0 321 321
d 1.20375 0 1 cbr 210 ------- 0 0.0 2.0 321 321
+ 1.2075 0 1 cbr 210 ------- 0 0.0 2.0 322 322
d 1.2075 0 1 cbr 210 ------- 0 0.0 2.0 322 322
+ 1.21125 0 1 cbr 210 ------- 0 0.0 2.0 323 323
d 1.21125 0 1 cbr 210 ------- 0 0.0 2.0 323 323
+ 1.215 0 1 cbr 210 ------- 0 0.0 2.0 324 324
d 1.215 0 1 cbr 210 ------- 0 0.0 2.0 324 324
+ 1.21875 0 1 cbr 210 ------- 0 0.0 2.0 325 325
d 1.21875 0 1 cbr 210 ------- 0 0.0 2.0 325 325
+ 1.2225 0 1 cbr 210 ------- 0 0.0 2.0 326 326
d 1.2225 0 1 cbr 210 ------- 0 0.0 2.0 326 326
+ 1.22625 0 1 cbr 210 ------- 0 0.0 2.0 327 327
d 1.22625 0 1 cbr 210 ------- 0 0.0 2.0 327 327
+ 1.23 0 1 cbr 210 ------- 0 0.0 2.0 328 328
d 1.23 0 1 cbr 210 ------- 0 0.0 2.0 328 328
+ 1.23375 0 1 cbr 210 ------- 0 0.0 2.0 329 329
d 1.23375 0 1 cbr 210 ------- 0 0.0 2.0 329 329
+ 1.2375 0 1 cbr 210 ------- 0 0.0 2.0 330 330
d 1.2375 0 1 cbr 210 ------- 0 0.0 2.0 330 330
+ 1.24125 0 1 cbr 210 ------- 0 0.0 2.0 331 331
d 1.24125 0 1 cbr 210 ------- 0 0.0 2.0 331 331
+ 1.245 0 1 cbr 210 ------- 0 0.0 2.0 332 332
d 1.245 0 1 cbr 210 ------- 0 0.0 2.0 332 332
+ 1.24875 0 1 cbr 210 ------- 0 0.0 2.0 333 333
d 1.24875 0 1 cbr 210 ------- 0 0.0 2.0 333 333
+ 1.2525 0 1 cbr 210 ------- 0 0.0 2.0 334 334
d 1.2525 0 1 cbr 210 ------- 0 0.0 2.0 334 334
+ 1.25625 0 1 cbr 210 ------- 0 0.0 2.0 335 335
d 1.25625 0 1 cbr 210 ------- 0 0.0 2.0 335 335
+ 1.26 0 1 cbr 210 ------- 0 0.0 2.0 336 336
d 1.26 0 1 cbr 210 ------- 0 0.0 2.0 336 336
+ 1.26375 0 1 cbr 210 ------- 0 0.0 2.0 337 337
d 1.26375 0 1 cbr 210 ------- 0 0.0 2.0 337 337
+ 1.2675 0 1 cbr 210 ------- 0 0.0 2.0 338 338
d 1.2675 0 1 cbr 210 ------- 0 0.0 2.0 338 338
+ 1.27125 0 1 cbr 210 ------- 0 0.0 2.0 339 339
d 1.27125 0 1 cbr 210 ------- 0 0.0 2.0 339 339
+ 1.275 0 1 cbr 210 ------- 0 0.0 2.0 340 340
d 1.275 0 1 cbr 210 ------- 0 0.0 2.0 340 340
+ 1.27875 0 1 cbr 210 ------- 0 0.0 2.0 341 341
d 1.27875 0 1 cbr 210 ------- 0 0.0 2.0 341 341
+ 1.2825 0 1 cbr 210 ------- 0 0.0 2.0 342 342
d 1.2825 0 1 cbr 210 ------- 0 0.0 2.0 342 342
+ 1.28625 0 1 cbr 210 ------- 0 0.0 2.0 343 343
d 1.28625 0 1 cbr 210 ------- 0 0.0 2.0 343 343
+ 1.29 0 1 cbr 210 ------- 0 0.0 2.0 344 344
d 1.29 0 1 cbr 210 ------- 0 0.0 2.0 344 344
+ 1.29375 0 1 cbr 210 ------- 0 0.0 2.0 345 345
d 1.29375 0 1 cbr 210 ------- 0 0.0 2.0 345 345