+ 0 0 2 tcp 40 ------- 0 0.0 3.0 0 0
- 0 0 2 tcp 40 ------- 0 0.0 3.0 0 0
r 0.02008 0 2 tcp 40 ------- 0 0.0 3.0 0 0
+ 0.02008 2 3 tcp 40 ------- 0 0.0 3.0 0 0
- 0.02008 2 3 tcp 40 ------- 0 0.0 3.0 0 0
r 0.0404 2 3 tcp 40 ------- 0 0.0 3.0 0 0
+ 0.0404 3 2 ack 40 ------- 0 3.0 0.0 0 1
- 0.0404 3 2 ack 40 ------- 0 3.0 0.0 0 1
r 0.06072 3 2 ack 40 ------- 0 3.0 0.0 0 1
+ 0.06072 2 0 ack 40 ------- 0 3.0 0.0 0 1
- 0.06072 2 0 ack 40 ------- 0 3.0 0.0 0 1
r 0.0808 2 0 ack 40 ------- 0 3.0 0.0 0 1
+ 0.0808 0 2 tcp 1040 ------- 0 0.0 3.0 1 2
- 0.0808 0 2 tcp 1040 ------- 0 0.0 3.0 1 2
+ 0.0808 0 2 tcp 1040 ------- 0 0.0 3.0 2 3
- 0.08288 0 2 tcp 1040 ------- 0 0.0 3.0 2 3
r 0.10288 0 2 tcp 1040 ------- 0 0.0 3.0 1 2
+ 0.10288 2 3 tcp 1040 ------- 0 0.0 3.0 1 2
- 0.10288 2 3 tcp 1040 ------- 0 0.0 3.0 1 2
r 0.10496 0 2 tcp 1040 ------- 0 0.0 3.0 2 3
+ 0.10496 2 3 tcp 1040 ------- 0 0.0 3.0 2 3
- 0.1112 2 3 tcp 1040 ------- 0 0.0 3.0 2 3
r 0.1312 2 3 tcp 1040 ------- 0 0.0 3.0 1 2
+ 0.1312 3 2 ack 40 ------- 0 3.0 0.0 1 4
- 0.1312 3 2 ack 40 ------- 0 3.0 0.0 1 4
r 0.13952 2 3 tcp 1040 ------- 0 0.0 3.0 2 3
+ 0.13952 3 2 ack 40 ------- 0 3.0 0.0 2 5
- 0.13952 3 2 ack 40 ------- 0 3.0 0.0 2 5
r 0.15152 3 2 ack 40 ------- 0 3.0 0.0 1 4
+ 0.15152 2 0 ack 40 ------- 0 3.0 0.0 1 4
- 0.15152 2 0 ack 40 ------- 0 3.0 0.0 1 4
r 0.15984 3 2 ack 40 ------- 0 3.0 0.0 2 5
+ 0.15984 2 0 ack 40 ------- 0 3.0 0.0 2 5
- 0.15984 2 0 ack 40 ------- 0 3.0 0.0 2 5
r 0.1716 2 0 ack 40 ------- 0 3.0 0.0 1 4
+ 0.1716 0 2 tcp 1040 ------- 0 0.0 3.0 3 6
- 0.1716 0 2 tcp 1040 ------- 0 0.0 3.0 3 6
+ 0.1716 0 2 tcp 1040 ------- 0 0.0 3.0 4 7
- 0.17368 0 2 tcp 1040 ------- 0 0.0 3.0 4 7
r 0.17992 2 0 ack 40 ------- 0 3.0 0.0 2 5
+ 0.17992 0 2 tcp 1040 ------- 0 0.0 3.0 5 8
- 0.17992 0 2 tcp 1040 ------- 0 0.0 3.0 5 8
+ 0.17992 0 2 tcp 1040 ------- 0 0.0 3.0 6 9
- 0.182 0 2 tcp 1040 ------- 0 0.0 3.0 6 9
r 0.19368 0 2 tcp 1040 ------- 0 0.0 3.0 3 6
+ 0.19368 2 3 tcp 1040 ------- 0 0.0 3.0 3 6
- 0.19368 2 3 tcp 1040 ------- 0 0.0 3.0 3 6
r 0.19576 0 2 tcp 1040 ------- 0 0.0 3.0 4 7
+ 0.19576 2 3 tcp 1040 ------- 0 0.0 3.0 4 7
r 0.202 0 2 tcp 1040 ------- 0 0.0 3.0 5 8
+ 0.202 2 3 tcp 1040 ------- 0 0.0 3.0 5 8
- 0.202 2 3 tcp 1040 ------- 0 0.0 3.0 4 7
r 0.20408 0 2 tcp 1040 ------- 0 0.0 3.0 6 9
+ 0.20408 2 3 tcp 1040 ------- 0 0.0 3.0 6 9
- 0.21032 2 3 tcp 1040 ------- 0 0.0 3.0 5 8
- 0.21864 2 3 tcp 1040 ------- 0 0.0 3.0 6 9
r 0.222 2 3 tcp 1040 ------- 0 0.0 3.0 3 6
+ 0.222 3 2 ack 40 ------- 0 3.0 0.0 3 10
- 0.222 3 2 ack 40 ------- 0 3.0 0.0 3 10
r 0.23032 2 3 tcp 1040 ------- 0 0.0 3.0 4 7
+ 0.23032 3 2 ack 40 ------- 0 3.0 0.0 4 11
- 0.23032 3 2 ack 40 ------- 0 3.0 0.0 4 11
r 0.23864 2 3 tcp 1040 ------- 0 0.0 3.0 5 8
+ 0.23864 3 2 ack 40 ------- 0 3.0 0.0 5 12
- 0.23864 3 2 ack 40 ------- 0 3.0 0.0 5 12
r 0.24232 3 2 ack 40 ------- 0 3.0 0.0 3 10
+ 0.24232 2 0 ack 40 ------- 0 3.0 0.0 3 10
- 0.24232 2 0 ack 40 ------- 0 3.0 0.0 3 10
r 0.24696 2 3 tcp 1040 ------- 0 0.0 3.0 6 9
+ 0.24696 3 2 ack 40 ------- 0 3.0 0.0 6 13
- 0.24696 3 2 ack 40 ------- 0 3.0 0.0 6 13
r 0.25064 3 2 ack 40 ------- 0 3.0 0.0 4 11
+ 0.25064 2 0 ack 40 ------- 0 3.0 0.0 4 11
- 0.25064 2 0 ack 40 ------- 0 3.0 0.0 4 11
r 0.25896 3 2 ack 40 ------- 0 3.0 0.0 5 12
+ 0.25896 2 0 ack 40 ------- 0 3.0 0.0 5 12
- 0.25896 2 0 ack 40 ------- 0 3.0 0.0 5 12
r 0.2624 2 0 ack 40 ------- 0 3.0 0.0 3 10
+ 0.2624 0 2 tcp 1040 ------- 0 0.0 3.0 7 14
- 0.2624 0 2 tcp 1040 ------- 0 0.0 3.0 7 14
+ 0.2624 0 2 tcp 1040 ------- 0 0.0 3.0 8 15
- 0.26448 0 2 tcp 1040 ------- 0 0.0 3.0 8 15
r 0.26728 3 2 ack 40 ------- 0 3.0 0.0 6 13
+ 0.26728 2 0 ack 40 ------- 0 3.0 0.0 6 13
- 0.26728 2 0 ack 40 ------- 0 3.0 0.0 6 13
r 0.27072 2 0 ack 40 ------- 0 3.0 0.0 4 11
+ 0.27072 0 2 tcp 1040 ------- 0 0.0 3.0 9 16
- 0.27072 0 2 tcp 1040 ------- 0 0.0 3.0 9 16
+ 0.27072 0 2 tcp 1040 ------- 0 0.0 3.0 10 17
- 0.2728 0 2 tcp 1040 ------- 0 0.0 3.0 10 17
r 0.27904 2 0 ack 40 ------- 0 3.0 0.0 5 12
+ 0.27904 0 2 tcp 1040 ------- 0 0.0 3.0 11 18
- 0.27904 0 2 tcp 1040 ------- 0 0.0 3.0 11 18
+ 0.27904 0 2 tcp 1040 ------- 0 0.0 3.0 12 19
- 0.28112 0 2 tcp 1040 ------- 0 0.0 3.0 12 19
r 0.28448 0 2 tcp 1040 ------- 0 0.0 3.0 7 14
+ 0.28448 2 3 tcp 1040 ------- 0 0.0 3.0 7 14
- 0.28448 2 3 tcp 1040 ------- 0 0.0 3.0 7 14
r 0.28656 0 2 tcp 1040 ------- 0 0.0 3.0 8 15
+ 0.28656 2 3 tcp 1040 ------- 0 0.0 3.0 8 15
r 0.28736 2 0 ack 40 ------- 0 3.0 0.0 6 13
+ 0.28736 0 2 tcp 1040 ------- 0 0.0 3.0 13 20
- 0.28736 0 2 tcp 1040 ------- 0 0.0 3.0 13 20
+ 0.28736 0 2 tcp 1040 ------- 0 0.0 3.0 14 21
- 0.28944 0 2 tcp 1040 ------- 0 0.0 3.0 14 21
r 0.2928 0 2 tcp 1040 ------- 0 0.0 3.0 9 16
+ 0.2928 2 3 tcp 1040 ------- 0 0.0 3.0 9 16
- 0.2928 2 3 tcp 1040 ------- 0 0.0 3.0 8 15
r 0.29488 0 2 tcp 1040 ------- 0 0.0 3.0 10 17
+ 0.29488 2 3 tcp 1040 ------- 0 0.0 3.0 10 17
r 0.30112 0 2 tcp 1040 ------- 0 0.0 3.0 11 18
+ 0.30112 2 3 tcp 1040 ------- 0 0.0 3.0 11 18
- 0.30112 2 3 tcp 1040 ------- 0 0.0 3.0 9 16
r 0.3032 0 2 tcp 1040 ------- 0 0.0 3.0 12 19
+ 0.3032 2 3 tcp 1040 ------- 0 0.0 3.0 12 19
r 0.30944 0 2 tcp 1040 ------- 0 0.0 3.0 13 20
+ 0.30944 2 3 tcp 1040 ------- 0 0.0 3.0 13 20
- 0.30944 2 3 tcp 1040 ------- 0 0.0 3.0 10 17
r 0.31152 0 2 tcp 1040 ------- 0 0.0 3.0 14 21
+ 0.31152 2 3 tcp 1040 ------- 0 0.0 3.0 14 21
r 0.3128 2 3 tcp 1040 ------- 0 0.0 3.0 7 14
+ 0.3128 3 2 ack 40 ------- 0 3.0 0.0 7 22
- 0.3128 3 2 ack 40 ------- 0 3.0 0.0 7 22
- 0.31776 2 3 tcp 1040 ------- 0 0.0 3.0 11 18
r 0.32112 2 3 tcp 1040 ------- 0 0.0 3.0 8 15
+ 0.32112 3 2 ack 40 ------- 0 3.0 0.0 8 23
- 0.32112 3 2 ack 40 ------- 0 3.0 0.0 8 23
- 0.32608 2 3 tcp 1040 ------- 0 0.0 3.0 12 19
r 0.32944 2 3 tcp 1040 ------- 0 0.0 3.0 9 16
+ 0.32944 3 2 ack 40 ------- 0 3.0 0.0 9 24
- 0.32944 3 2 ack 40 ------- 0 3.0 0.0 9 24
r 0.33312 3 2 ack 40 ------- 0 3.0 0.0 7 22
+ 0.33312 2 0 ack 40 ------- 0 3.0 0.0 7 22
- 0.33312 2 0 ack 40 ------- 0 3.0 0.0 7 22
- 0.3344 2 3 tcp 1040 ------- 0 0.0 3.0 13 20
r 0.33776 2 3 tcp 1040 ------- 0 0.0 3.0 10 17
+ 0.33776 3 2 ack 40 ------- 0 3.0 0.0 10 25
- 0.33776 3 2 ack 40 ------- 0 3.0 0.0 10 25
r 0.34144 3 2 ack 40 ------- 0 3.0 0.0 8 23
+ 0.34144 2 0 ack 40 ------- 0 3.0 0.0 8 23
- 0.34144 2 0 ack 40 ------- 0 3.0 0.0 8 23
- 0.34272 2 3 tcp 1040 ------- 0 0.0 3.0 14 21
r 0.34608 2 3 tcp 1040 ------- 0 0.0 3.0 11 18
+ 0.34608 3 2 ack 40 ------- 0 3.0 0.0 11 26
- 0.34608 3 2 ack 40 ------- 0 3.0 0.0 11 26
r 0.34976 3 2 ack 40 ------- 0 3.0 0.0 9 24
+ 0.34976 2 0 ack 40 ------- 0 3.0 0.0 9 24
- 0.34976 2 0 ack 40 ------- 0 3.0 0.0 9 24
r 0.3532 2 0 ack 40 ------- 0 3.0 0.0 7 22
+ 0.3532 0 2 tcp 1040 ------- 0 0.0 3.0 15 27
- 0.3532 0 2 tcp 1040 ------- 0 0.0 3.0 15 27
+ 0.3532 0 2 tcp 1040 ------- 0 0.0 3.0 16 28
r 0.3544 2 3 tcp 1040 ------- 0 0.0 3.0 12 19
+ 0.3544 3 2 ack 40 ------- 0 3.0 0.0 12 29
- 0.3544 3 2 ack 40 ------- 0 3.0 0.0 12 29
- 0.35528 0 2 tcp 1040 ------- 0 0.0 3.0 16 28
r 0.35808 3 2 ack 40 ------- 0 3.0 0.0 10 25
+ 0.35808 2 0 ack 40 ------- 0 3.0 0.0 10 25
- 0.35808 2 0 ack 40 ------- 0 3.0 0.0 10 25
r 0.36152 2 0 ack 40 ------- 0 3.0 0.0 8 23
+ 0.36152 0 2 tcp 1040 ------- 0 0.0 3.0 17 30
- 0.36152 0 2 tcp 1040 ------- 0 0.0 3.0 17 30
+ 0.36152 0 2 tcp 1040 ------- 0 0.0 3.0 18 31
r 0.36272 2 3 tcp 1040 ------- 0 0.0 3.0 13 20
+ 0.36272 3 2 ack 40 ------- 0 3.0 0.0 13 32
- 0.36272 3 2 ack 40 ------- 0 3.0 0.0 13 32
- 0.3636 0 2 tcp 1040 ------- 0 0.0 3.0 18 31
r 0.3664 3 2 ack 40 ------- 0 3.0 0.0 11 26
+ 0.3664 2 0 ack 40 ------- 0 3.0 0.0 11 26
- 0.3664 2 0 ack 40 ------- 0 3.0 0.0 11 26
r 0.36984 2 0 ack 40 ------- 0 3.0 0.0 9 24
+ 0.36984 0 2 tcp 1040 ------- 0 0.0 3.0 19 33
- 0.36984 0 2 tcp 1040 ------- 0 0.0 3.0 19 33
+ 0.36984 0 2 tcp 1040 ------- 0 0.0 3.0 20 34
r 0.37104 2 3 tcp 1040 ------- 0 0.0 3.0 14 21
+ 0.37104 3 2 ack 40 ------- 0 3.0 0.0 14 35
- 0.37104 3 2 ack 40 ------- 0 3.0 0.0 14 35
- 0.37192 0 2 tcp 1040 ------- 0 0.0 3.0 20 34
r 0.37472 3 2 ack 40 ------- 0 3.0 0.0 12 29
+ 0.37472 2 0 ack 40 ------- 0 3.0 0.0 12 29
- 0.37472 2 0 ack 40 ------- 0 3.0 0.0 12 29
r 0.37528 0 2 tcp 1040 ------- 0 0.0 3.0 15 27
+ 0.37528 2 3 tcp 1040 ------- 0 0.0 3.0 15 27
- 0.37528 2 3 tcp 1040 ------- 0 0.0 3.0 15 27
r 0.37736 0 2 tcp 1040 ------- 0 0.0 3.0 16 28
+ 0.37736 2 3 tcp 1040 ------- 0 0.0 3.0 16 28
r 0.37816 2 0 ack 40 ------- 0 3.0 0.0 10 25
+ 0.37816 0 2 tcp 1040 ------- 0 0.0 3.0 21 36
- 0.37816 0 2 tcp 1040 ------- 0 0.0 3.0 21 36
+ 0.37816 0 2 tcp 1040 ------- 0 0.0 3.0 22 37
- 0.38024 0 2 tcp 1040 ------- 0 0.0 3.0 22 37
r 0.38304 3 2 ack 40 ------- 0 3.0 0.0 13 32
+ 0.38304 2 0 ack 40 ------- 0 3.0 0.0 13 32
- 0.38304 2 0 ack 40 ------- 0 3.0 0.0 13 32
r 0.3836 0 2 tcp 1040 ------- 0 0.0 3.0 17 30
+ 0.3836 2 3 tcp 1040 ------- 0 0.0 3.0 17 30
- 0.3836 2 3 tcp 1040 ------- 0 0.0 3.0 16 28
r 0.38568 0 2 tcp 1040 ------- 0 0.0 3.0 18 31
+ 0.38568 2 3 tcp 1040 ------- 0 0.0 3.0 18 31
r 0.38648 2 0 ack 40 ------- 0 3.0 0.0 11 26
+ 0.38648 0 2 tcp 1040 ------- 0 0.0 3.0 23 38
- 0.38648 0 2 tcp 1040 ------- 0 0.0 3.0 23 38
+ 0.38648 0 2 tcp 1040 ------- 0 0.0 3.0 24 39
- 0.38856 0 2 tcp 1040 ------- 0 0.0 3.0 24 39
r 0.39136 3 2 ack 40 ------- 0 3.0 0.0 14 35
+ 0.39136 2 0 ack 40 ------- 0 3.0 0.0 14 35
- 0.39136 2 0 ack 40 ------- 0 3.0 0.0 14 35
r 0.39192 0 2 tcp 1040 ------- 0 0.0 3.0 19 33
+ 0.39192 2 3 tcp 1040 ------- 0 0.0 3.0 19 33
- 0.39192 2 3 tcp 1040 ------- 0 0.0 3.0 17 30
r 0.394 0 2 tcp 1040 ------- 0 0.0 3.0 20 34
+ 0.394 2 3 tcp 1040 ------- 0 0.0 3.0 20 34
r 0.3948 2 0 ack 40 ------- 0 3.0 0.0 12 29
+ 0.3948 0 2 tcp 1040 ------- 0 0.0 3.0 25 40
- 0.3948 0 2 tcp 1040 ------- 0 0.0 3.0 25 40
+ 0.3948 0 2 tcp 1040 ------- 0 0.0 3.0 26 41
- 0.39688 0 2 tcp 1040 ------- 0 0.0 3.0 26 41
r 0.40024 0 2 tcp 1040 ------- 0 0.0 3.0 21 36
+ 0.40024 2 3 tcp 1040 ------- 0 0.0 3.0 21 36
- 0.40024 2 3 tcp 1040 ------- 0 0.0 3.0 18 31
r 0.40232 0 2 tcp 1040 ------- 0 0.0 3.0 22 37
+ 0.40232 2 3 tcp 1040 ------- 0 0.0 3.0 22 37
r 0.40312 2 0 ack 40 ------- 0 3.0 0.0 13 32
+ 0.40312 0 2 tcp 1040 ------- 0 0.0 3.0 27 42
- 0.40312 0 2 tcp 1040 ------- 0 0.0 3.0 27 42
+ 0.40312 0 2 tcp 1040 ------- 0 0.0 3.0 28 43
r 0.4036 2 3 tcp 1040 ------- 0 0.0 3.0 15 27
+ 0.4036 3 2 ack 40 ------- 0 3.0 0.0 15 44
- 0.4036 3 2 ack 40 ------- 0 3.0 0.0 15 44
- 0.4052 0 2 tcp 1040 ------- 0 0.0 3.0 28 43
r 0.40856 0 2 tcp 1040 ------- 0 0.0 3.0 23 38
+ 0.40856 2 3 tcp 1040 ------- 0 0.0 3.0 23 38
- 0.40856 2 3 tcp 1040 ------- 0 0.0 3.0 19 33
r 0.41064 0 2 tcp 1040 ------- 0 0.0 3.0 24 39
+ 0.41064 2 3 tcp 1040 ------- 0 0.0 3.0 24 39
r 0.41144 2 0 ack 40 ------- 0 3.0 0.0 14 35
+ 0.41144 0 2 tcp 1040 ------- 0 0.0 3.0 29 45
- 0.41144 0 2 tcp 1040 ------- 0 0.0 3.0 29 45
+ 0.41144 0 2 tcp 1040 ------- 0 0.0 3.0 30 46
r 0.41192 2 3 tcp 1040 ------- 0 0.0 3.0 16 28
+ 0.41192 3 2 ack 40 ------- 0 3.0 0.0 16 47
- 0.41192 3 2 ack 40 ------- 0 3.0 0.0 16 47
- 0.41352 0 2 tcp 1040 ------- 0 0.0 3.0 30 46
r 0.41688 0 2 tcp 1040 ------- 0 0.0 3.0 25 40
+ 0.41688 2 3 tcp 1040 ------- 0 0.0 3.0 25 40
- 0.41688 2 3 tcp 1040 ------- 0 0.0 3.0 20 34
r 0.41896 0 2 tcp 1040 ------- 0 0.0 3.0 26 41
+ 0.41896 2 3 tcp 1040 ------- 0 0.0 3.0 26 41
r 0.42024 2 3 tcp 1040 ------- 0 0.0 3.0 17 30
+ 0.42024 3 2 ack 40 ------- 0 3.0 0.0 17 48
- 0.42024 3 2 ack 40 ------- 0 3.0 0.0 17 48
r 0.42392 3 2 ack 40 ------- 0 3.0 0.0 15 44
+ 0.42392 2 0 ack 40 ------- 0 3.0 0.0 15 44
- 0.42392 2 0 ack 40 ------- 0 3.0 0.0 15 44
r 0.4252 0 2 tcp 1040 ------- 0 0.0 3.0 27 42
+ 0.4252 2 3 tcp 1040 ------- 0 0.0 3.0 27 42
- 0.4252 2 3 tcp 1040 ------- 0 0.0 3.0 21 36
r 0.42728 0 2 tcp 1040 ------- 0 0.0 3.0 28 43
+ 0.42728 2 3 tcp 1040 ------- 0 0.0 3.0 28 43
r 0.42856 2 3 tcp 1040 ------- 0 0.0 3.0 18 31
+ 0.42856 3 2 ack 40 ------- 0 3.0 0.0 18 49
- 0.42856 3 2 ack 40 ------- 0 3.0 0.0 18 49
r 0.43224 3 2 ack 40 ------- 0 3.0 0.0 16 47
+ 0.43224 2 0 ack 40 ------- 0 3.0 0.0 16 47
- 0.43224 2 0 ack 40 ------- 0 3.0 0.0 16 47
r 0.43352 0 2 tcp 1040 ------- 0 0.0 3.0 29 45
+ 0.43352 2 3 tcp 1040 ------- 0 0.0 3.0 29 45
- 0.43352 2 3 tcp 1040 ------- 0 0.0 3.0 22 37
r 0.4356 0 2 tcp 1040 ------- 0 0.0 3.0 30 46
+ 0.4356 2 3 tcp 1040 ------- 0 0.0 3.0 30 46
r 0.43688 2 3 tcp 1040 ------- 0 0.0 3.0 19 33
+ 0.43688 3 2 ack 40 ------- 0 3.0 0.0 19 50
- 0.43688 3 2 ack 40 ------- 0 3.0 0.0 19 50
r 0.44056 3 2 ack 40 ------- 0 3.0 0.0 17 48
+ 0.44056 2 0 ack 40 ------- 0 3.0 0.0 17 48
- 0.44056 2 0 ack 40 ------- 0 3.0 0.0 17 48
- 0.44184 2 3 tcp 1040 ------- 0 0.0 3.0 23 38
r 0.444 2 0 ack 40 ------- 0 3.0 0.0 15 44
+ 0.444 0 2 tcp 1040 ------- 0 0.0 3.0 31 51
- 0.444 0 2 tcp 1040 ------- 0 0.0 3.0 31 51
+ 0.444 0 2 tcp 1040 ------- 0 0.0 3.0 32 52
r 0.4452 2 3 tcp 1040 ------- 0 0.0 3.0 20 34
+ 0.4452 3 2 ack 40 ------- 0 3.0 0.0 20 53
- 0.4452 3 2 ack 40 ------- 0 3.0 0.0 20 53
- 0.44608 0 2 tcp 1040 ------- 0 0.0 3.0 32 52
r 0.44888 3 2 ack 40 ------- 0 3.0 0.0 18 49
+ 0.44888 2 0 ack 40 ------- 0 3.0 0.0 18 49
- 0.44888 2 0 ack 40 ------- 0 3.0 0.0 18 49
- 0.45016 2 3 tcp 1040 ------- 0 0.0 3.0 24 39
r 0.45232 2 0 ack 40 ------- 0 3.0 0.0 16 47
+ 0.45232 0 2 tcp 1040 ------- 0 0.0 3.0 33 54
- 0.45232 0 2 tcp 1040 ------- 0 0.0 3.0 33 54
+ 0.45232 0 2 tcp 1040 ------- 0 0.0 3.0 34 55
r 0.45352 2 3 tcp 1040 ------- 0 0.0 3.0 21 36
+ 0.45352 3 2 ack 40 ------- 0 3.0 0.0 21 56
- 0.45352 3 2 ack 40 ------- 0 3.0 0.0 21 56
- 0.4544 0 2 tcp 1040 ------- 0 0.0 3.0 34 55
r 0.4572 3 2 ack 40 ------- 0 3.0 0.0 19 50
+ 0.4572 2 0 ack 40 ------- 0 3.0 0.0 19 50
- 0.4572 2 0 ack 40 ------- 0 3.0 0.0 19 50
- 0.45848 2 3 tcp 1040 ------- 0 0.0 3.0 25 40
r 0.46064 2 0 ack 40 ------- 0 3.0 0.0 17 48
+ 0.46064 0 2 tcp 1040 ------- 0 0.0 3.0 35 57
- 0.46064 0 2 tcp 1040 ------- 0 0.0 3.0 35 57
+ 0.46064 0 2 tcp 1040 ------- 0 0.0 3.0 36 58
r 0.46184 2 3 tcp 1040 ------- 0 0.0 3.0 22 37
+ 0.46184 3 2 ack 40 ------- 0 3.0 0.0 22 59
- 0.46184 3 2 ack 40 ------- 0 3.0 0.0 22 59
- 0.46272 0 2 tcp 1040 ------- 0 0.0 3.0 36 58
r 0.46552 3 2 ack 40 ------- 0 3.0 0.0 20 53
+ 0.46552 2 0 ack 40 ------- 0 3.0 0.0 20 53
- 0.46552 2 0 ack 40 ------- 0 3.0 0.0 20 53
r 0.46608 0 2 tcp 1040 ------- 0 0.0 3.0 31 51
+ 0.46608 2 3 tcp 1040 ------- 0 0.0 3.0 31 51
- 0.4668 2 3 tcp 1040 ------- 0 0.0 3.0 26 41
r 0.46816 0 2 tcp 1040 ------- 0 0.0 3.0 32 52
+ 0.46816 2 3 tcp 1040 ------- 0 0.0 3.0 32 52
r 0.46896 2 0 ack 40 ------- 0 3.0 0.0 18 49
+ 0.46896 0 2 tcp 1040 ------- 0 0.0 3.0 37 60
- 0.46896 0 2 tcp 1040 ------- 0 0.0 3.0 37 60
+ 0.46896 0 2 tcp 1040 ------- 0 0.0 3.0 38 61
r 0.47016 2 3 tcp 1040 ------- 0 0.0 3.0 23 38
+ 0.47016 3 2 ack 40 ------- 0 3.0 0.0 23 62
- 0.47016 3 2 ack 40 ------- 0 3.0 0.0 23 62
- 0.47104 0 2 tcp 1040 ------- 0 0.0 3.0 38 61
r 0.47384 3 2 ack 40 ------- 0 3.0 0.0 21 56
+ 0.47384 2 0 ack 40 ------- 0 3.0 0.0 21 56
- 0.47384 2 0 ack 40 ------- 0 3.0 0.0 21 56
r 0.4744 0 2 tcp 1040 ------- 0 0.0 3.0 33 54
+ 0.4744 2 3 tcp 1040 ------- 0 0.0 3.0 33 54
- 0.47512 2 3 tcp 1040 ------- 0 0.0 3.0 27 42
r 0.47648 0 2 tcp 1040 ------- 0 0.0 3.0 34 55
+ 0.47648 2 3 tcp 1040 ------- 0 0.0 3.0 34 55
r 0.47728 2 0 ack 40 ------- 0 3.0 0.0 19 50
+ 0.47728 0 2 tcp 1040 ------- 0 0.0 3.0 39 63
- 0.47728 0 2 tcp 1040 ------- 0 0.0 3.0 39 63
r 0.47848 2 3 tcp 1040 ------- 0 0.0 3.0 24 39
+ 0.47848 3 2 ack 40 ------- 0 3.0 0.0 24 64
- 0.47848 3 2 ack 40 ------- 0 3.0 0.0 24 64
r 0.48216 3 2 ack 40 ------- 0 3.0 0.0 22 59
+ 0.48216 2 0 ack 40 ------- 0 3.0 0.0 22 59
- 0.48216 2 0 ack 40 ------- 0 3.0 0.0 22 59
r 0.48272 0 2 tcp 1040 ------- 0 0.0 3.0 35 57
+ 0.48272 2 3 tcp 1040 ------- 0 0.0 3.0 35 57
- 0.48344 2 3 tcp 1040 ------- 0 0.0 3.0 28 43
r 0.4848 0 2 tcp 1040 ------- 0 0.0 3.0 36 58
+ 0.4848 2 3 tcp 1040 ------- 0 0.0 3.0 36 58
r 0.4856 2 0 ack 40 ------- 0 3.0 0.0 20 53
+ 0.4856 0 2 tcp 1040 ------- 0 0.0 3.0 40 65
- 0.4856 0 2 tcp 1040 ------- 0 0.0 3.0 40 65
r 0.4868 2 3 tcp 1040 ------- 0 0.0 3.0 25 40
+ 0.4868 3 2 ack 40 ------- 0 3.0 0.0 25 66
- 0.4868 3 2 ack 40 ------- 0 3.0 0.0 25 66
r 0.49048 3 2 ack 40 ------- 0 3.0 0.0 23 62
+ 0.49048 2 0 ack 40 ------- 0 3.0 0.0 23 62
- 0.49048 2 0 ack 40 ------- 0 3.0 0.0 23 62
r 0.49104 0 2 tcp 1040 ------- 0 0.0 3.0 37 60
+ 0.49104 2 3 tcp 1040 ------- 0 0.0 3.0 37 60
- 0.49176 2 3 tcp 1040 ------- 0 0.0 3.0 29 45
r 0.49312 0 2 tcp 1040 ------- 0 0.0 3.0 38 61
+ 0.49312 2 3 tcp 1040 ------- 0 0.0 3.0 38 61
r 0.49392 2 0 ack 40 ------- 0 3.0 0.0 21 56
+ 0.49392 0 2 tcp 1040 ------- 0 0.0 3.0 41 67
- 0.49392 0 2 tcp 1040 ------- 0 0.0 3.0 41 67
r 0.49512 2 3 tcp 1040 ------- 0 0.0 3.0 26 41
+ 0.49512 3 2 ack 40 ------- 0 3.0 0.0 26 68
- 0.49512 3 2 ack 40 ------- 0 3.0 0.0 26 68
r 0.4988 3 2 ack 40 ------- 0 3.0 0.0 24 64
+ 0.4988 2 0 ack 40 ------- 0 3.0 0.0 24 64
- 0.4988 2 0 ack 40 ------- 0 3.0 0.0 24 64
r 0.49936 0 2 tcp 1040 ------- 0 0.0 3.0 39 63
+ 0.49936 2 3 tcp 1040 ------- 0 0.0 3.0 39 63
- 0.50008 2 3 tcp 1040 ------- 0 0.0 3.0 30 46
r 0.50224 2 0 ack 40 ------- 0 3.0 0.0 22 59
+ 0.50224 0 2 tcp 1040 ------- 0 0.0 3.0 42 69
- 0.50224 0 2 tcp 1040 ------- 0 0.0 3.0 42 69
r 0.50344 2 3 tcp 1040 ------- 0 0.0 3.0 27 42
+ 0.50344 3 2 ack 40 ------- 0 3.0 0.0 27 70
- 0.50344 3 2 ack 40 ------- 0 3.0 0.0 27 70
r 0.50712 3 2 ack 40 ------- 0 3.0 0.0 25 66
+ 0.50712 2 0 ack 40 ------- 0 3.0 0.0 25 66
- 0.50712 2 0 ack 40 ------- 0 3.0 0.0 25 66
r 0.50768 0 2 tcp 1040 ------- 0 0.0 3.0 40 65
+ 0.50768 2 3 tcp 1040 ------- 0 0.0 3.0 40 65
- 0.5084 2 3 tcp 1040 ------- 0 0.0 3.0 31 51
r 0.51056 2 0 ack 40 ------- 0 3.0 0.0 23 62
+ 0.51056 0 2 tcp 1040 ------- 0 0.0 3.0 43 71
- 0.51056 0 2 tcp 1040 ------- 0 0.0 3.0 43 71
r 0.51176 2 3 tcp 1040 ------- 0 0.0 3.0 28 43
+ 0.51176 3 2 ack 40 ------- 0 3.0 0.0 28 72
- 0.51176 3 2 ack 40 ------- 0 3.0 0.0 28 72
r 0.51544 3 2 ack 40 ------- 0 3.0 0.0 26 68
+ 0.51544 2 0 ack 40 ------- 0 3.0 0.0 26 68
- 0.51544 2 0 ack 40 ------- 0 3.0 0.0 26 68
r 0.516 0 2 tcp 1040 ------- 0 0.0 3.0 41 67
+ 0.516 2 3 tcp 1040 ------- 0 0.0 3.0 41 67
- 0.51672 2 3 tcp 1040 ------- 0 0.0 3.0 32 52
r 0.51888 2 0 ack 40 ------- 0 3.0 0.0 24 64
+ 0.51888 0 2 tcp 1040 ------- 0 0.0 3.0 44 73
- 0.51888 0 2 tcp 1040 ------- 0 0.0 3.0 44 73
r 0.52008 2 3 tcp 1040 ------- 0 0.0 3.0 29 45
+ 0.52008 3 2 ack 40 ------- 0 3.0 0.0 29 74
- 0.52008 3 2 ack 40 ------- 0 3.0 0.0 29 74
r 0.52376 3 2 ack 40 ------- 0 3.0 0.0 27 70
+ 0.52376 2 0 ack 40 ------- 0 3.0 0.0 27 70
- 0.52376 2 0 ack 40 ------- 0 3.0 0.0 27 70
r 0.52432 0 2 tcp 1040 ------- 0 0.0 3.0 42 69
+ 0.52432 2 3 tcp 1040 ------- 0 0.0 3.0 42 69
- 0.52504 2 3 tcp 1040 ------- 0 0.0 3.0 33 54
r 0.5272 2 0 ack 40 ------- 0 3.0 0.0 25 66
+ 0.5272 0 2 tcp 1040 ------- 0 0.0 3.0 45 75
- 0.5272 0 2 tcp 1040 ------- 0 0.0 3.0 45 75
r 0.5284 2 3 tcp 1040 ------- 0 0.0 3.0 30 46
+ 0.5284 3 2 ack 40 ------- 0 3.0 0.0 30 76
- 0.5284 3 2 ack 40 ------- 0 3.0 0.0 30 76
r 0.53208 3 2 ack 40 ------- 0 3.0 0.0 28 72
+ 0.53208 2 0 ack 40 ------- 0 3.0 0.0 28 72
- 0.53208 2 0 ack 40 ------- 0 3.0 0.0 28 72
r 0.53264 0 2 tcp 1040 ------- 0 0.0 3.0 43 71
+ 0.53264 2 3 tcp 1040 ------- 0 0.0 3.0 43 71
- 0.53336 2 3 tcp 1040 ------- 0 0.0 3.0 34 55
r 0.53552 2 0 ack 40 ------- 0 3.0 0.0 26 68
+ 0.53552 0 2 tcp 1040 ------- 0 0.0 3.0 46 77
- 0.53552 0 2 tcp 1040 ------- 0 0.0 3.0 46 77
r 0.53672 2 3 tcp 1040 ------- 0 0.0 3.0 31 51
+ 0.53672 3 2 ack 40 ------- 0 3.0 0.0 31 78
- 0.53672 3 2 ack 40 ------- 0 3.0 0.0 31 78
r 0.5404 3 2 ack 40 ------- 0 3.0 0.0 29 74
+ 0.5404 2 0 ack 40 ------- 0 3.0 0.0 29 74
- 0.5404 2 0 ack 40 ------- 0 3.0 0.0 29 74
r 0.54096 0 2 tcp 1040 ------- 0 0.0 3.0 44 73
+ 0.54096 2 3 tcp 1040 ------- 0 0.0 3.0 44 73
- 0.54168 2 3 tcp 1040 ------- 0 0.0 3.0 35 57
r 0.54384 2 0 ack 40 ------- 0 3.0 0.0 27 70
+ 0.54384 0 2 tcp 1040 ------- 0 0.0 3.0 47 79
- 0.54384 0 2 tcp 1040 ------- 0 0.0 3.0 47 79
r 0.54504 2 3 tcp 1040 ------- 0 0.0 3.0 32 52
+ 0.54504 3 2 ack 40 ------- 0 3.0 0.0 32 80
- 0.54504 3 2 ack 40 ------- 0 3.0 0.0 32 80
r 0.54872 3 2 ack 40 ------- 0 3.0 0.0 30 76
+ 0.54872 2 0 ack 40 ------- 0 3.0 0.0 30 76
- 0.54872 2 0 ack 40 ------- 0 3.0 0.0 30 76
r 0.54928 0 2 tcp 1040 ------- 0 0.0 3.0 45 75
+ 0.54928 2 3 tcp 1040 ------- 0 0.0 3.0 45 75
- 0.55 2 3 tcp 1040 ------- 0 0.0 3.0 36 58
r 0.55216 2 0 ack 40 ------- 0 3.0 0.0 28 72
+ 0.55216 0 2 tcp 1040 ------- 0 0.0 3.0 48 81
- 0.55216 0 2 tcp 1040 ------- 0 0.0 3.0 48 81
r 0.55336 2 3 tcp 1040 ------- 0 0.0 3.0 33 54
+ 0.55336 3 2 ack 40 ------- 0 3.0 0.0 33 82
- 0.55336 3 2 ack 40 ------- 0 3.0 0.0 33 82
r 0.55704 3 2 ack 40 ------- 0 3.0 0.0 31 78
+ 0.55704 2 0 ack 40 ------- 0 3.0 0.0 31 78
- 0.55704 2 0 ack 40 ------- 0 3.0 0.0 31 78
r 0.5576 0 2 tcp 1040 ------- 0 0.0 3.0 46 77
+ 0.5576 2 3 tcp 1040 ------- 0 0.0 3.0 46 77
- 0.55832 2 3 tcp 1040 ------- 0 0.0 3.0 37 60
r 0.56048 2 0 ack 40 ------- 0 3.0 0.0 29 74
+ 0.56048 0 2 tcp 1040 ------- 0 0.0 3.0 49 83
- 0.56048 0 2 tcp 1040 ------- 0 0.0 3.0 49 83
r 0.56168 2 3 tcp 1040 ------- 0 0.0 3.0 34 55
+ 0.56168 3 2 ack 40 ------- 0 3.0 0.0 34 84
- 0.56168 3 2 ack 40 ------- 0 3.0 0.0 34 84
r 0.56536 3 2 ack 40 ------- 0 3.0 0.0 32 80
+ 0.56536 2 0 ack 40 ------- 0 3.0 0.0 32 80
- 0.56536 2 0 ack 40 ------- 0 3.0 0.0 32 80
r 0.56592 0 2 tcp 1040 ------- 0 0.0 3.0 47 79
+ 0.56592 2 3 tcp 1040 ------- 0 0.0 3.0 47 79
- 0.56664 2 3 tcp 1040 ------- 0 0.0 3.0 38 61
r 0.5688 2 0 ack 40 ------- 0 3.0 0.0 30 76
+ 0.5688 0 2 tcp 1040 ------- 0 0.0 3.0 50 85
- 0.5688 0 2 tcp 1040 ------- 0 0.0 3.0 50 85
r 0.57 2 3 tcp 1040 ------- 0 0.0 3.0 35 57
+ 0.57 3 2 ack 40 ------- 0 3.0 0.0 35 86
- 0.57 3 2 ack 40 ------- 0 3.0 0.0 35 86
r 0.57368 3 2 ack 40 ------- 0 3.0 0.0 33 82
+ 0.57368 2 0 ack 40 ------- 0 3.0 0.0 33 82
- 0.57368 2 0 ack 40 ------- 0 3.0 0.0 33 82
r 0.57424 0 2 tcp 1040 ------- 0 0.0 3.0 48 81
+ 0.57424 2 3 tcp 1040 ------- 0 0.0 3.0 48 81
- 0.57496 2 3 tcp 1040 ------- 0 0.0 3.0 39 63
r 0.57712 2 0 ack 40 ------- 0 3.0 0.0 31 78
+ 0.57712 0 2 tcp 1040 ------- 0 0.0 3.0 51 87
- 0.57712 0 2 tcp 1040 ------- 0 0.0 3.0 51 87
r 0.57832 2 3 tcp 1040 ------- 0 0.0 3.0 36 58
+ 0.57832 3 2 ack 40 ------- 0 3.0 0.0 36 88
- 0.57832 3 2 ack 40 ------- 0 3.0 0.0 36 88
r 0.582 3 2 ack 40 ------- 0 3.0 0.0 34 84
+ 0.582 2 0 ack 40 ------- 0 3.0 0.0 34 84
- 0.582 2 0 ack 40 ------- 0 3.0 0.0 34 84
r 0.58256 0 2 tcp 1040 ------- 0 0.0 3.0 49 83
+ 0.58256 2 3 tcp 1040 ------- 0 0.0 3.0 49 83
- 0.58328 2 3 tcp 1040 ------- 0 0.0 3.0 40 65
r 0.58544 2 0 ack 40 ------- 0 3.0 0.0 32 80
+ 0.58544 0 2 tcp 1040 ------- 0 0.0 3.0 52 89
- 0.58544 0 2 tcp 1040 ------- 0 0.0 3.0 52 89
r 0.58664 2 3 tcp 1040 ------- 0 0.0 3.0 37 60
+ 0.58664 3 2 ack 40 ------- 0 3.0 0.0 37 90
- 0.58664 3 2 ack 40 ------- 0 3.0 0.0 37 90
r 0.59032 3 2 ack 40 ------- 0 3.0 0.0 35 86
+ 0.59032 2 0 ack 40 ------- 0 3.0 0.0 35 86
- 0.59032 2 0 ack 40 ------- 0 3.0 0.0 35 86
r 0.59088 0 2 tcp 1040 ------- 0 0.0 3.0 50 85
+ 0.59088 2 3 tcp 1040 ------- 0 0.0 3.0 50 85
- 0.5916 2 3 tcp 1040 ------- 0 0.0 3.0 41 67
r 0.59376 2 0 ack 40 ------- 0 3.0 0.0 33 82
+ 0.59376 0 2 tcp 1040 ------- 0 0.0 3.0 53 91
- 0.59376 0 2 tcp 1040 ------- 0 0.0 3.0 53 91
r 0.59496 2 3 tcp 1040 ------- 0 0.0 3.0 38 61
+ 0.59496 3 2 ack 40 ------- 0 3.0 0.0 38 92
- 0.59496 3 2 ack 40 ------- 0 3.0 0.0 38 92
r 0.59864 3 2 ack 40 ------- 0 3.0 0.0 36 88
+ 0.59864 2 0 ack 40 ------- 0 3.0 0.0 36 88
- 0.59864 2 0 ack 40 ------- 0 3.0 0.0 36 88
r 0.5992 0 2 tcp 1040 ------- 0 0.0 3.0 51 87
+ 0.5992 2 3 tcp 1040 ------- 0 0.0 3.0 51 87
- 0.59992 2 3 tcp 1040 ------- 0 0.0 3.0 42 69
r 0.60208 2 0 ack 40 ------- 0 3.0 0.0 34 84
+ 0.60208 0 2 tcp 1040 ------- 0 0.0 3.0 54 93
- 0.60208 0 2 tcp 1040 ------- 0 0.0 3.0 54 93
r 0.60328 2 3 tcp 1040 ------- 0 0.0 3.0 39 63
+ 0.60328 3 2 ack 40 ------- 0 3.0 0.0 39 94
- 0.60328 3 2 ack 40 ------- 0 3.0 0.0 39 94
r 0.60696 3 2 ack 40 ------- 0 3.0 0.0 37 90
+ 0.60696 2 0 ack 40 ------- 0 3.0 0.0 37 90
- 0.60696 2 0 ack 40 ------- 0 3.0 0.0 37 90
r 0.60752 0 2 tcp 1040 ------- 0 0.0 3.0 52 89
+ 0.60752 2 3 tcp 1040 ------- 0 0.0 3.0 52 89
- 0.60824 2 3 tcp 1040 ------- 0 0.0 3.0 43 71
r 0.6104 2 0 ack 40 ------- 0 3.0 0.0 35 86
+ 0.6104 0 2 tcp 1040 ------- 0 0.0 3.0 55 95
- 0.6104 0 2 tcp 1040 ------- 0 0.0 3.0 55 95
r 0.6116 2 3 tcp 1040 ------- 0 0.0 3.0 40 65
+ 0.6116 3 2 ack 40 ------- 0 3.0 0.0 40 96
- 0.6116 3 2 ack 40 ------- 0 3.0 0.0 40 96
r 0.61528 3 2 ack 40 ------- 0 3.0 0.0 38 92
+ 0.61528 2 0 ack 40 ------- 0 3.0 0.0 38 92
- 0.61528 2 0 ack 40 ------- 0 3.0 0.0 38 92
r 0.61584 0 2 tcp 1040 ------- 0 0.0 3.0 53 91
+ 0.61584 2 3 tcp 1040 ------- 0 0.0 3.0 53 91
- 0.61656 2 3 tcp 1040 ------- 0 0.0 3.0 44 73
r 0.61872 2 0 ack 40 ------- 0 3.0 0.0 36 88
+ 0.61872 0 2 tcp 1040 ------- 0 0.0 3.0 56 97
- 0.61872 0 2 tcp 1040 ------- 0 0.0 3.0 56 97
r 0.61992 2 3 tcp 1040 ------- 0 0.0 3.0 41 67
+ 0.61992 3 2 ack 40 ------- 0 3.0 0.0 41 98
- 0.61992 3 2 ack 40 ------- 0 3.0 0.0 41 98
r 0.6236 3 2 ack 40 ------- 0 3.0 0.0 39 94
+ 0.6236 2 0 ack 40 ------- 0 3.0 0.0 39 94
- 0.6236 2 0 ack 40 ------- 0 3.0 0.0 39 94
r 0.62416 0 2 tcp 1040 ------- 0 0.0 3.0 54 93
+ 0.62416 2 3 tcp 1040 ------- 0 0.0 3.0 54 93
- 0.62488 2 3 tcp 1040 ------- 0 0.0 3.0 45 75
r 0.62704 2 0 ack 40 ------- 0 3.0 0.0 37 90
+ 0.62704 0 2 tcp 1040 ------- 0 0.0 3.0 57 99
- 0.62704 0 2 tcp 1040 ------- 0 0.0 3.0 57 99
r 0.62824 2 3 tcp 1040 ------- 0 0.0 3.0 42 69
+ 0.62824 3 2 ack 40 ------- 0 3.0 0.0 42 100
- 0.62824 3 2 ack 40 ------- 0 3.0 0.0 42 100
r 0.63192 3 2 ack 40 ------- 0 3.0 0.0 40 96
+ 0.63192 2 0 ack 40 ------- 0 3.0 0.0 40 96
- 0.63192 2 0 ack 40 ------- 0 3.0 0.0 40 96
r 0.63248 0 2 tcp 1040 ------- 0 0.0 3.0 55 95
+ 0.63248 2 3 tcp 1040 ------- 0 0.0 3.0 55 95
- 0.6332 2 3 tcp 1040 ------- 0 0.0 3.0 46 77
r 0.63536 2 0 ack 40 ------- 0 3.0 0.0 38 92
+ 0.63536 0 2 tcp 1040 ------- 0 0.0 3.0 58 101
- 0.63536 0 2 tcp 1040 ------- 0 0.0 3.0 58 101
r 0.63656 2 3 tcp 1040 ------- 0 0.0 3.0 43 71
+ 0.63656 3 2 ack 40 ------- 0 3.0 0.0 43 102
- 0.63656 3 2 ack 40 ------- 0 3.0 0.0 43 102
r 0.64024 3 2 ack 40 ------- 0 3.0 0.0 41 98
+ 0.64024 2 0 ack 40 ------- 0 3.0 0.0 41 98
- 0.64024 2 0 ack 40 ------- 0 3.0 0.0 41 98
r 0.6408 0 2 tcp 1040 ------- 0 0.0 3.0 56 97
+ 0.6408 2 3 tcp 1040 ------- 0 0.0 3.0 56 97
- 0.64152 2 3 tcp 1040 ------- 0 0.0 3.0 47 79
r 0.64368 2 0 ack 40 ------- 0 3.0 0.0 39 94
+ 0.64368 0 2 tcp 1040 ------- 0 0.0 3.0 59 103
- 0.64368 0 2 tcp 1040 ------- 0 0.0 3.0 59 103
r 0.64488 2 3 tcp 1040 ------- 0 0.0 3.0 44 73
+ 0.64488 3 2 ack 40 ------- 0 3.0 0.0 44 104
- 0.64488 3 2 ack 40 ------- 0 3.0 0.0 44 104
r 0.64856 3 2 ack 40 ------- 0 3.0 0.0 42 100
+ 0.64856 2 0 ack 40 ------- 0 3.0 0.0 42 100
- 0.64856 2 0 ack 40 ------- 0 3.0 0.0 42 100
r 0.64912 0 2 tcp 1040 ------- 0 0.0 3.0 57 99
+ 0.64912 2 3 tcp 1040 ------- 0 0.0 3.0 57 99
- 0.64984 2 3 tcp 1040 ------- 0 0.0 3.0 48 81
r 0.652 2 0 ack 40 ------- 0 3.0 0.0 40 96
+ 0.652 0 2 tcp 1040 ------- 0 0.0 3.0 60 105
- 0.652 0 2 tcp 1040 ------- 0 0.0 3.0 60 105
r 0.6532 2 3 tcp 1040 ------- 0 0.0 3.0 45 75
+ 0.6532 3 2 ack 40 ------- 0 3.0 0.0 45 106
- 0.6532 3 2 ack 40 ------- 0 3.0 0.0 45 106
r 0.65688 3 2 ack 40 ------- 0 3.0 0.0 43 102
+ 0.65688 2 0 ack 40 ------- 0 3.0 0.0 43 102
- 0.65688 2 0 ack 40 ------- 0 3.0 0.0 43 102
r 0.65744 0 2 tcp 1040 ------- 0 0.0 3.0 58 101
+ 0.65744 2 3 tcp 1040 ------- 0 0.0 3.0 58 101
- 0.65816 2 3 tcp 1040 ------- 0 0.0 3.0 49 83
r 0.66032 2 0 ack 40 ------- 0 3.0 0.0 41 98
+ 0.66032 0 2 tcp 1040 ------- 0 0.0 3.0 61 107
- 0.66032 0 2 tcp 1040 ------- 0 0.0 3.0 61 107
r 0.66152 2 3 tcp 1040 ------- 0 0.0 3.0 46 77
+ 0.66152 3 2 ack 40 ------- 0 3.0 0.0 46 108
- 0.66152 3 2 ack 40 ------- 0 3.0 0.0 46 108
r 0.6652 3 2 ack 40 ------- 0 3.0 0.0 44 104
+ 0.6652 2 0 ack 40 ------- 0 3.0 0.0 44 104
- 0.6652 2 0 ack 40 ------- 0 3.0 0.0 44 104
r 0.66576 0 2 tcp 1040 ------- 0 0.0 3.0 59 103
+ 0.66576 2 3 tcp 1040 ------- 0 0.0 3.0 59 103
- 0.66648 2 3 tcp 1040 ------- 0 0.0 3.0 50 85
r 0.66864 2 0 ack 40 ------- 0 3.0 0.0 42 100
+ 0.66864 0 2 tcp 1040 ------- 0 0.0 3.0 62 109
- 0.66864 0 2 tcp 1040 ------- 0 0.0 3.0 62 109
r 0.66984 2 3 tcp 1040 ------- 0 0.0 3.0 47 79
+ 0.66984 3 2 ack 40 ------- 0 3.0 0.0 47 110
- 0.66984 3 2 ack 40 ------- 0 3.0 0.0 47 110
r 0.67352 3 2 ack 40 ------- 0 3.0 0.0 45 106
+ 0.67352 2 0 ack 40 ------- 0 3.0 0.0 45 106
- 0.67352 2 0 ack 40 ------- 0 3.0 0.0 45 106
r 0.67408 0 2 tcp 1040 ------- 0 0.0 3.0 60 105
+ 0.67408 2 3 tcp 1040 ------- 0 0.0 3.0 60 105
- 0.6748 2 3 tcp 1040 ------- 0 0.0 3.0 51 87
r 0.67696 2 0 ack 40 ------- 0 3.0 0.0 43 102
+ 0.67696 0 2 tcp 1040 ------- 0 0.0 3.0 63 111
- 0.67696 0 2 tcp 1040 ------- 0 0.0 3.0 63 111
r 0.67816 2 3 tcp 1040 ------- 0 0.0 3.0 48 81
+ 0.67816 3 2 ack 40 ------- 0 3.0 0.0 48 112
- 0.67816 3 2 ack 40 ------- 0 3.0 0.0 48 112
r 0.68184 3 2 ack 40 ------- 0 3.0 0.0 46 108
+ 0.68184 2 0 ack 40 ------- 0 3.0 0.0 46 108
- 0.68184 2 0 ack 40 ------- 0 3.0 0.0 46 108
r 0.6824 0 2 tcp 1040 ------- 0 0.0 3.0 61 107
+ 0.6824 2 3 tcp 1040 ------- 0 0.0 3.0 61 107
- 0.68312 2 3 tcp 1040 ------- 0 0.0 3.0 52 89
r 0.68528 2 0 ack 40 ------- 0 3.0 0.0 44 104
+ 0.68528 0 2 tcp 1040 ------- 0 0.0 3.0 64 113
- 0.68528 0 2 tcp 1040 ------- 0 0.0 3.0 64 113
r 0.68648 2 3 tcp 1040 ------- 0 0.0 3.0 49 83
+ 0.68648 3 2 ack 40 ------- 0 3.0 0.0 49 114
- 0.68648 3 2 ack 40 ------- 0 3.0 0.0 49 114
r 0.69016 3 2 ack 40 ------- 0 3.0 0.0 47 110
+ 0.69016 2 0 ack 40 ------- 0 3.0 0.0 47 110
- 0.69016 2 0 ack 40 ------- 0 3.0 0.0 47 110
r 0.69072 0 2 tcp 1040 ------- 0 0.0 3.0 62 109
+ 0.69072 2 3 tcp 1040 ------- 0 0.0 3.0 62 109
- 0.69144 2 3 tcp 1040 ------- 0 0.0 3.0 53 91
r 0.6936 2 0 ack 40 ------- 0 3.0 0.0 45 106
+ 0.6936 0 2 tcp 1040 ------- 0 0.0 3.0 65 115
- 0.6936 0 2 tcp 1040 ------- 0 0.0 3.0 65 115
r 0.6948 2 3 tcp 1040 ------- 0 0.0 3.0 50 85
+ 0.6948 3 2 ack 40 ------- 0 3.0 0.0 50 116
- 0.6948 3 2 ack 40 ------- 0 3.0 0.0 50 116
r 0.69848 3 2 ack 40 ------- 0 3.0 0.0 48 112
+ 0.69848 2 0 ack 40 ------- 0 3.0 0.0 48 112