V -t * -v 1.0a5 -a 0
A -t * -n 1 -p 0 -o 0xffffffff -c 31 -a 1
A -t * -h 1 -m 2147483647 -s 0
n -t * -a 0 -s 0 -S UP -v circle -c black -i black
n -t * -a 1 -s 1 -S UP -v circle -c black -i black
n -t * -a 2 -s 2 -S UP -v circle -c black -i black
n -t * -a 3 -s 3 -S UP -v circle -c black -i black
l -t * -s 0 -d 2 -S UP -r 2000000 -D 0.01 -c black -o 
l -t * -s 1 -d 2 -S UP -r 2000000 -D 0.01 -c black -o 
l -t * -s 2 -d 3 -S UP -r 900000 -D 0.01 -c black -o 
+ -t 0 -s 0 -d 2 -p tcp -e 40 -c 0 -i 0 -a 0 -x {0.0 3.0 0 ------- null}
- -t 0 -s 0 -d 2 -p tcp -e 40 -c 0 -i 0 -a 0 -x {0.0 3.0 0 ------- null}
h -t 0 -s 0 -d 2 -p tcp -e 40 -c 0 -i 0 -a 0 -x {0.0 3.0 -1 ------- null}
+ -t 0 -s 1 -d 2 -p cbr -e 500 -c 0 -i 1 -a 0 -x {1.0 3.1 0 ------- null}
- -t 0 -s 1 -d 2 -p cbr -e 500 -c 0 -i 1 -a 0 -x {1.0 3.1 0 ------- null}
h -t 0 -s 1 -d 2 -p cbr -e 500 -c 0 -i 1 -a 0 -x {1.0 3.1 -1 ------- null}
+ -t 0.005 -s 1 -d 2 -p cbr -e 500 -c 0 -i 2 -a 0 -x {1.0 3.1 1 ------- null}
- -t 0.005 -s 1 -d 2 -p cbr -e 500 -c 0 -i 2 -a 0 -x {1.0 3.1 1 ------- null}
h -t 0.005 -s 1 -d 2 -p cbr -e 500 -c 0 -i 2 -a 0 -x {1.0 3.1 -1 ------- null}
+ -t 0.01 -s 1 -d 2 -p cbr -e 500 -c 0 -i 3 -a 0 -x {1.0 3.1 2 ------- null}
- -t 0.01 -s 1 -d 2 -p cbr -e 500 -c 0 -i 3 -a 0 -x {1.0 3.1 2 ------- null}
h -t 0.01 -s 1 -d 2 -p cbr -e 500 -c 0 -i 3 -a 0 -x {1.0 3.1 -1 ------- null}
r -t 0.01016 -s 0 -d 2 -p tcp -e 40 -c 0 -i 0 -a 0 -x {0.0 3.0 0 ------- null}
+ -t 0.01016 -s 2 -d 3 -p tcp -e 40 -c 0 -i 0 -a 0 -x {0.0 3.0 0 ------- null}
- -t 0.01016 -s 2 -d 3 -p tcp -e 40 -c 0 -i 0 -a 0 -x {0.0 3.0 0 ------- null}
h -t 0.01016 -s 2 -d 3 -p tcp -e 40 -c 0 -i 0 -a 0 -x {0.0 3.0 -1 ------- null}
r -t 0.012 -s 1 -d 2 -p cbr -e 500 -c 0 -i 1 -a 0 -x {1.0 3.1 0 ------- null}
+ -t 0.012 -s 2 -d 3 -p cbr -e 500 -c 0 -i 1 -a 0 -x {1.0 3.1 0 ------- null}
- -t 0.012 -s 2 -d 3 -p cbr -e 500 -c 0 -i 1 -a 0 -x {1.0 3.1 0 ------- null}
h -t 0.012 -s 2 -d 3 -p cbr -e 500 -c 0 -i 1 -a 0 -x {1.0 3.1 -1 ------- null}
+ -t 0.015 -s 1 -d 2 -p cbr -e 500 -c 0 -i 4 -a 0 -x {1.0 3.1 3 ------- null}
- -t 0.015 -s 1 -d 2 -p cbr -e 500 -c 0 -i 4 -a 0 -x {1.0 3.1 3 ------- null}
h -t 0.015 -s 1 -d 2 -p cbr -e 500 -c 0 -i 4 -a 0 -x {1.0 3.1 -1 ------- null}
r -t 0.017 -s 1 -d 2 -p cbr -e 500 -c 0 -i 2 -a 0 -x {1.0 3.1 1 ------- null}
+ -t 0.017 -s 2 -d 3 -p cbr -e 500 -c 0 -i 2 -a 0 -x {1.0 3.1 1 ------- null}
- -t 0.017 -s 2 -d 3 -p cbr -e 500 -c 0 -i 2 -a 0 -x {1.0 3.1 1 ------- null}
h -t 0.017 -s 2 -d 3 -p cbr -e 500 -c 0 -i 2 -a 0 -x {1.0 3.1 -1 ------- null}
+ -t 0.02 -s 1 -d 2 -p cbr -e 500 -c 0 -i 5 -a 0 -x {1.0 3.1 4 ------- null}
- -t 0.02 -s 1 -d 2 -p cbr -e 500 -c 0 -i 5 -a 0 -x {1.0 3.1 4 ------- null}
h -t 0.02 -s 1 -d 2 -p cbr -e 500 -c 0 -i 5 -a 0 -x {1.0 3.1 -1 ------- null}
r -t 0.0205155555555556 -s 2 -d 3 -p tcp -e 40 -c 0 -i 0 -a 0 -x {0.0 3.0 0 ------- null}
+ -t 0.0205155555555556 -s 3 -d 2 -p ack -e 40 -c 0 -i 6 -a 0 -x {3.0 0.0 0 ------- null}
- -t 0.0205155555555556 -s 3 -d 2 -p ack -e 40 -c 0 -i 6 -a 0 -x {3.0 0.0 0 ------- null}
h -t 0.0205155555555556 -s 3 -d 2 -p ack -e 40 -c 0 -i 6 -a 0 -x {3.0 0.0 -1 ------- null}
r -t 0.022 -s 1 -d 2 -p cbr -e 500 -c 0 -i 3 -a 0 -x {1.0 3.1 2 ------- null}
+ -t 0.022 -s 2 -d 3 -p cbr -e 500 -c 0 -i 3 -a 0 -x {1.0 3.1 2 ------- null}
- -t 0.022 -s 2 -d 3 -p cbr -e 500 -c 0 -i 3 -a 0 -x {1.0 3.1 2 ------- null}
h -t 0.022 -s 2 -d 3 -p cbr -e 500 -c 0 -i 3 -a 0 -x {1.0 3.1 -1 ------- null}
+ -t 0.025 -s 1 -d 2 -p cbr -e 500 -c 0 -i 7 -a 0 -x {1.0 3.1 5 ------- null}
- -t 0.025 -s 1 -d 2 -p cbr -e 500 -c 0 -i 7 -a 0 -x {1.0 3.1 5 ------- null}
h -t 0.025 -s 1 -d 2 -p cbr -e 500 -c 0 -i 7 -a 0 -x {1.0 3.1 -1 ------- null}
r -t 0.0264444444444444 -s 2 -d 3 -p cbr -e 500 -c 0 -i 1 -a 0 -x {1.0 3.1 0 ------- null}
r -t 0.027 -s 1 -d 2 -p cbr -e 500 -c 0 -i 4 -a 0 -x {1.0 3.1 3 ------- null}
+ -t 0.027 -s 2 -d 3 -p cbr -e 500 -c 0 -i 4 -a 0 -x {1.0 3.1 3 ------- null}
- -t 0.027 -s 2 -d 3 -p cbr -e 500 -c 0 -i 4 -a 0 -x {1.0 3.1 3 ------- null}
h -t 0.027 -s 2 -d 3 -p cbr -e 500 -c 0 -i 4 -a 0 -x {1.0 3.1 -1 ------- null}
+ -t 0.03 -s 1 -d 2 -p cbr -e 500 -c 0 -i 8 -a 0 -x {1.0 3.1 6 ------- null}
- -t 0.03 -s 1 -d 2 -p cbr -e 500 -c 0 -i 8 -a 0 -x {1.0 3.1 6 ------- null}
h -t 0.03 -s 1 -d 2 -p cbr -e 500 -c 0 -i 8 -a 0 -x {1.0 3.1 -1 ------- null}
r -t 0.0308711111111111 -s 3 -d 2 -p ack -e 40 -c 0 -i 6 -a 0 -x {3.0 0.0 0 ------- null}
+ -t 0.0308711111111111 -s 2 -d 0 -p ack -e 40 -c 0 -i 6 -a 0 -x {3.0 0.0 0 ------- null}
- -t 0.0308711111111111 -s 2 -d 0 -p ack -e 40 -c 0 -i 6 -a 0 -x {3.0 0.0 0 ------- null}
h -t 0.0308711111111111 -s 2 -d 0 -p ack -e 40 -c 0 -i 6 -a 0 -x {3.0 0.0 -1 ------- null}
r -t 0.0314444444444444 -s 2 -d 3 -p cbr -e 500 -c 0 -i 2 -a 0 -x {1.0 3.1 1 ------- null}
r -t 0.032 -s 1 -d 2 -p cbr -e 500 -c 0 -i 5 -a 0 -x {1.0 3.1 4 ------- null}
+ -t 0.032 -s 2 -d 3 -p cbr -e 500 -c 0 -i 5 -a 0 -x {1.0 3.1 4 ------- null}
- -t 0.032 -s 2 -d 3 -p cbr -e 500 -c 0 -i 5 -a 0 -x {1.0 3.1 4 ------- null}
h -t 0.032 -s 2 -d 3 -p cbr -e 500 -c 0 -i 5 -a 0 -x {1.0 3.1 -1 ------- null}
+ -t 0.035 -s 1 -d 2 -p cbr -e 500 -c 0 -i 9 -a 0 -x {1.0 3.1 7 ------- null}
- -t 0.035 -s 1 -d 2 -p cbr -e 500 -c 0 -i 9 -a 0 -x {1.0 3.1 7 ------- null}
h -t 0.035 -s 1 -d 2 -p cbr -e 500 -c 0 -i 9 -a 0 -x {1.0 3.1 -1 ------- null}
r -t 0.0364444444444444 -s 2 -d 3 -p cbr -e 500 -c 0 -i 3 -a 0 -x {1.0 3.1 2 ------- null}
r -t 0.037 -s 1 -d 2 -p cbr -e 500 -c 0 -i 7 -a 0 -x {1.0 3.1 5 ------- null}
+ -t 0.037 -s 2 -d 3 -p cbr -e 500 -c 0 -i 7 -a 0 -x {1.0 3.1 5 ------- null}
- -t 0.037 -s 2 -d 3 -p cbr -e 500 -c 0 -i 7 -a 0 -x {1.0 3.1 5 ------- null}
h -t 0.037 -s 2 -d 3 -p cbr -e 500 -c 0 -i 7 -a 0 -x {1.0 3.1 -1 ------- null}
+ -t 0.04 -s 1 -d 2 -p cbr -e 500 -c 0 -i 10 -a 0 -x {1.0 3.1 8 ------- null}
- -t 0.04 -s 1 -d 2 -p cbr -e 500 -c 0 -i 10 -a 0 -x {1.0 3.1 8 ------- null}
h -t 0.04 -s 1 -d 2 -p cbr -e 500 -c 0 -i 10 -a 0 -x {1.0 3.1 -1 ------- null}
r -t 0.0410311111111111 -s 2 -d 0 -p ack -e 40 -c 0 -i 6 -a 0 -x {3.0 0.0 0 ------- null}
+ -t 0.0410311111111111 -s 0 -d 2 -p tcp -e 1040 -c 0 -i 11 -a 0 -x {0.0 3.0 1 ------- null}
- -t 0.0410311111111111 -s 0 -d 2 -p tcp -e 1040 -c 0 -i 11 -a 0 -x {0.0 3.0 1 ------- null}
h -t 0.0410311111111111 -s 0 -d 2 -p tcp -e 1040 -c 0 -i 11 -a 0 -x {0.0 3.0 -1 ------- null}
+ -t 0.0410311111111111 -s 0 -d 2 -p tcp -e 1040 -c 0 -i 12 -a 0 -x {0.0 3.0 2 ------- null}
r -t 0.0414444444444444 -s 2 -d 3 -p cbr -e 500 -c 0 -i 4 -a 0 -x {1.0 3.1 3 ------- null}
r -t 0.042 -s 1 -d 2 -p cbr -e 500 -c 0 -i 8 -a 0 -x {1.0 3.1 6 ------- null}
+ -t 0.042 -s 2 -d 3 -p cbr -e 500 -c 0 -i 8 -a 0 -x {1.0 3.1 6 ------- null}
- -t 0.042 -s 2 -d 3 -p cbr -e 500 -c 0 -i 8 -a 0 -x {1.0 3.1 6 ------- null}
h -t 0.042 -s 2 -d 3 -p cbr -e 500 -c 0 -i 8 -a 0 -x {1.0 3.1 -1 ------- null}
+ -t 0.045 -s 1 -d 2 -p cbr -e 500 -c 0 -i 13 -a 0 -x {1.0 3.1 9 ------- null}
- -t 0.045 -s 1 -d 2 -p cbr -e 500 -c 0 -i 13 -a 0 -x {1.0 3.1 9 ------- null}
h -t 0.045 -s 1 -d 2 -p cbr -e 500 -c 0 -i 13 -a 0 -x {1.0 3.1 -1 ------- null}
- -t 0.0451911111111111 -s 0 -d 2 -p tcp -e 1040 -c 0 -i 12 -a 0 -x {0.0 3.0 2 ------- null}
h -t 0.0451911111111111 -s 0 -d 2 -p tcp -e 1040 -c 0 -i 12 -a 0 -x {0.0 3.0 -1 ------- null}
r -t 0.0464444444444444 -s 2 -d 3 -p cbr -e 500 -c 0 -i 5 -a 0 -x {1.0 3.1 4 ------- null}
r -t 0.047 -s 1 -d 2 -p cbr -e 500 -c 0 -i 9 -a 0 -x {1.0 3.1 7 ------- null}
+ -t 0.047 -s 2 -d 3 -p cbr -e 500 -c 0 -i 9 -a 0 -x {1.0 3.1 7 ------- null}
- -t 0.047 -s 2 -d 3 -p cbr -e 500 -c 0 -i 9 -a 0 -x {1.0 3.1 7 ------- null}
h -t 0.047 -s 2 -d 3 -p cbr -e 500 -c 0 -i 9 -a 0 -x {1.0 3.1 -1 ------- null}
+ -t 0.05 -s 1 -d 2 -p cbr -e 500 -c 0 -i 14 -a 0 -x {1.0 3.1 10 ------- null}
- -t 0.05 -s 1 -d 2 -p cbr -e 500 -c 0 -i 14 -a 0 -x {1.0 3.1 10 ------- null}
h -t 0.05 -s 1 -d 2 -p cbr -e 500 -c 0 -i 14 -a 0 -x {1.0 3.1 -1 ------- null}
r -t 0.0514444444444444 -s 2 -d 3 -p cbr -e 500 -c 0 -i 7 -a 0 -x {1.0 3.1 5 ------- null}
r -t 0.052 -s 1 -d 2 -p cbr -e 500 -c 0 -i 10 -a 0 -x {1.0 3.1 8 ------- null}
+ -t 0.052 -s 2 -d 3 -p cbr -e 500 -c 0 -i 10 -a 0 -x {1.0 3.1 8 ------- null}
- -t 0.052 -s 2 -d 3 -p cbr -e 500 -c 0 -i 10 -a 0 -x {1.0 3.1 8 ------- null}
h -t 0.052 -s 2 -d 3 -p cbr -e 500 -c 0 -i 10 -a 0 -x {1.0 3.1 -1 ------- null}
+ -t 0.055 -s 1 -d 2 -p cbr -e 500 -c 0 -i 15 -a 0 -x {1.0 3.1 11 ------- null}
- -t 0.055 -s 1 -d 2 -p cbr -e 500 -c 0 -i 15 -a 0 -x {1.0 3.1 11 ------- null}
h -t 0.055 -s 1 -d 2 -p cbr -e 500 -c 0 -i 15 -a 0 -x {1.0 3.1 -1 ------- null}
r -t 0.0551911111111111 -s 0 -d 2 -p tcp -e 1040 -c 0 -i 11 -a 0 -x {0.0 3.0 1 ------- null}
+ -t 0.0551911111111111 -s 2 -d 3 -p tcp -e 1040 -c 0 -i 11 -a 0 -x {0.0 3.0 1 ------- null}
r -t 0.0564444444444445 -s 2 -d 3 -p cbr -e 500 -c 0 -i 8 -a 0 -x {1.0 3.1 6 ------- null}
- -t 0.0564444444444445 -s 2 -d 3 -p tcp -e 1040 -c 0 -i 11 -a 0 -x {0.0 3.0 1 ------- null}
h -t 0.0564444444444445 -s 2 -d 3 -p tcp -e 1040 -c 0 -i 11 -a 0 -x {0.0 3.0 -1 ------- null}
r -t 0.057 -s 1 -d 2 -p cbr -e 500 -c 0 -i 13 -a 0 -x {1.0 3.1 9 ------- null}
+ -t 0.057 -s 2 -d 3 -p cbr -e 500 -c 0 -i 13 -a 0 -x {1.0 3.1 9 ------- null}
r -t 0.0593511111111111 -s 0 -d 2 -p tcp -e 1040 -c 0 -i 12 -a 0 -x {0.0 3.0 2 ------- null}
+ -t 0.0593511111111111 -s 2 -d 3 -p tcp -e 1040 -c 0 -i 12 -a 0 -x {0.0 3.0 2 ------- null}
+ -t 0.06 -s 1 -d 2 -p cbr -e 500 -c 0 -i 16 -a 0 -x {1.0 3.1 12 ------- null}
- -t 0.06 -s 1 -d 2 -p cbr -e 500 -c 0 -i 16 -a 0 -x {1.0 3.1 12 ------- null}
h -t 0.06 -s 1 -d 2 -p cbr -e 500 -c 0 -i 16 -a 0 -x {1.0 3.1 -1 ------- null}
r -t 0.0614444444444444 -s 2 -d 3 -p cbr -e 500 -c 0 -i 9 -a 0 -x {1.0 3.1 7 ------- null}
r -t 0.062 -s 1 -d 2 -p cbr -e 500 -c 0 -i 14 -a 0 -x {1.0 3.1 10 ------- null}
+ -t 0.062 -s 2 -d 3 -p cbr -e 500 -c 0 -i 14 -a 0 -x {1.0 3.1 10 ------- null}
+ -t 0.065 -s 1 -d 2 -p cbr -e 500 -c 0 -i 17 -a 0 -x {1.0 3.1 13 ------- null}
- -t 0.065 -s 1 -d 2 -p cbr -e 500 -c 0 -i 17 -a 0 -x {1.0 3.1 13 ------- null}
h -t 0.065 -s 1 -d 2 -p cbr -e 500 -c 0 -i 17 -a 0 -x {1.0 3.1 -1 ------- null}
- -t 0.0656888888888889 -s 2 -d 3 -p cbr -e 500 -c 0 -i 13 -a 0 -x {1.0 3.1 9 ------- null}
h -t 0.0656888888888889 -s 2 -d 3 -p cbr -e 500 -c 0 -i 13 -a 0 -x {1.0 3.1 -1 ------- null}
r -t 0.0664444444444444 -s 2 -d 3 -p cbr -e 500 -c 0 -i 10 -a 0 -x {1.0 3.1 8 ------- null}
r -t 0.067 -s 1 -d 2 -p cbr -e 500 -c 0 -i 15 -a 0 -x {1.0 3.1 11 ------- null}
+ -t 0.067 -s 2 -d 3 -p cbr -e 500 -c 0 -i 15 -a 0 -x {1.0 3.1 11 ------- null}
+ -t 0.07 -s 1 -d 2 -p cbr -e 500 -c 0 -i 18 -a 0 -x {1.0 3.1 14 ------- null}
- -t 0.07 -s 1 -d 2 -p cbr -e 500 -c 0 -i 18 -a 0 -x {1.0 3.1 14 ------- null}
h -t 0.07 -s 1 -d 2 -p cbr -e 500 -c 0 -i 18 -a 0 -x {1.0 3.1 -1 ------- null}
- -t 0.0701333333333333 -s 2 -d 3 -p tcp -e 1040 -c 0 -i 12 -a 0 -x {0.0 3.0 2 ------- null}
h -t 0.0701333333333333 -s 2 -d 3 -p tcp -e 1040 -c 0 -i 12 -a 0 -x {0.0 3.0 -1 ------- null}
r -t 0.072 -s 1 -d 2 -p cbr -e 500 -c 0 -i 16 -a 0 -x {1.0 3.1 12 ------- null}
+ -t 0.072 -s 2 -d 3 -p cbr -e 500 -c 0 -i 16 -a 0 -x {1.0 3.1 12 ------- null}
+ -t 0.075 -s 1 -d 2 -p cbr -e 500 -c 0 -i 19 -a 0 -x {1.0 3.1 15 ------- null}
- -t 0.075 -s 1 -d 2 -p cbr -e 500 -c 0 -i 19 -a 0 -x {1.0 3.1 15 ------- null}
h -t 0.075 -s 1 -d 2 -p cbr -e 500 -c 0 -i 19 -a 0 -x {1.0 3.1 -1 ------- null}
r -t 0.0756888888888889 -s 2 -d 3 -p tcp -e 1040 -c 0 -i 11 -a 0 -x {0.0 3.0 1 ------- null}
+ -t 0.0756888888888889 -s 3 -d 2 -p ack -e 40 -c 0 -i 20 -a 0 -x {3.0 0.0 1 ------- null}
- -t 0.0756888888888889 -s 3 -d 2 -p ack -e 40 -c 0 -i 20 -a 0 -x {3.0 0.0 1 ------- null}
h -t 0.0756888888888889 -s 3 -d 2 -p ack -e 40 -c 0 -i 20 -a 0 -x {3.0 0.0 -1 ------- null}
r -t 0.077 -s 1 -d 2 -p cbr -e 500 -c 0 -i 17 -a 0 -x {1.0 3.1 13 ------- null}
+ -t 0.077 -s 2 -d 3 -p cbr -e 500 -c 0 -i 17 -a 0 -x {1.0 3.1 13 ------- null}
- -t 0.0793777777777778 -s 2 -d 3 -p cbr -e 500 -c 0 -i 14 -a 0 -x {1.0 3.1 10 ------- null}
h -t 0.0793777777777778 -s 2 -d 3 -p cbr -e 500 -c 0 -i 14 -a 0 -x {1.0 3.1 -1 ------- null}
+ -t 0.08 -s 1 -d 2 -p cbr -e 500 -c 0 -i 21 -a 0 -x {1.0 3.1 16 ------- null}
- -t 0.08 -s 1 -d 2 -p cbr -e 500 -c 0 -i 21 -a 0 -x {1.0 3.1 16 ------- null}
h -t 0.08 -s 1 -d 2 -p cbr -e 500 -c 0 -i 21 -a 0 -x {1.0 3.1 -1 ------- null}
r -t 0.0801333333333333 -s 2 -d 3 -p cbr -e 500 -c 0 -i 13 -a 0 -x {1.0 3.1 9 ------- null}
r -t 0.082 -s 1 -d 2 -p cbr -e 500 -c 0 -i 18 -a 0 -x {1.0 3.1 14 ------- null}
+ -t 0.082 -s 2 -d 3 -p cbr -e 500 -c 0 -i 18 -a 0 -x {1.0 3.1 14 ------- null}
- -t 0.0838222222222222 -s 2 -d 3 -p cbr -e 500 -c 0 -i 15 -a 0 -x {1.0 3.1 11 ------- null}
h -t 0.0838222222222222 -s 2 -d 3 -p cbr -e 500 -c 0 -i 15 -a 0 -x {1.0 3.1 -1 ------- null}
+ -t 0.085 -s 1 -d 2 -p cbr -e 500 -c 0 -i 22 -a 0 -x {1.0 3.1 17 ------- null}
- -t 0.085 -s 1 -d 2 -p cbr -e 500 -c 0 -i 22 -a 0 -x {1.0 3.1 17 ------- null}
h -t 0.085 -s 1 -d 2 -p cbr -e 500 -c 0 -i 22 -a 0 -x {1.0 3.1 -1 ------- null}
r -t 0.0860444444444445 -s 3 -d 2 -p ack -e 40 -c 0 -i 20 -a 0 -x {3.0 0.0 1 ------- null}
+ -t 0.0860444444444445 -s 2 -d 0 -p ack -e 40 -c 0 -i 20 -a 0 -x {3.0 0.0 1 ------- null}
- -t 0.0860444444444445 -s 2 -d 0 -p ack -e 40 -c 0 -i 20 -a 0 -x {3.0 0.0 1 ------- null}
h -t 0.0860444444444445 -s 2 -d 0 -p ack -e 40 -c 0 -i 20 -a 0 -x {3.0 0.0 -1 ------- null}
r -t 0.087 -s 1 -d 2 -p cbr -e 500 -c 0 -i 19 -a 0 -x {1.0 3.1 15 ------- null}
+ -t 0.087 -s 2 -d 3 -p cbr -e 500 -c 0 -i 19 -a 0 -x {1.0 3.1 15 ------- null}
- -t 0.0882666666666667 -s 2 -d 3 -p cbr -e 500 -c 0 -i 16 -a 0 -x {1.0 3.1 12 ------- null}
h -t 0.0882666666666667 -s 2 -d 3 -p cbr -e 500 -c 0 -i 16 -a 0 -x {1.0 3.1 -1 ------- null}
r -t 0.0893777777777778 -s 2 -d 3 -p tcp -e 1040 -c 0 -i 12 -a 0 -x {0.0 3.0 2 ------- null}
+ -t 0.0893777777777778 -s 3 -d 2 -p ack -e 40 -c 0 -i 23 -a 0 -x {3.0 0.0 2 ------- null}
- -t 0.0893777777777778 -s 3 -d 2 -p ack -e 40 -c 0 -i 23 -a 0 -x {3.0 0.0 2 ------- null}
h -t 0.0893777777777778 -s 3 -d 2 -p ack -e 40 -c 0 -i 23 -a 0 -x {3.0 0.0 -1 ------- null}
+ -t 0.09 -s 1 -d 2 -p cbr -e 500 -c 0 -i 24 -a 0 -x {1.0 3.1 18 ------- null}
- -t 0.09 -s 1 -d 2 -p cbr -e 500 -c 0 -i 24 -a 0 -x {1.0 3.1 18 ------- null}
h -t 0.09 -s 1 -d 2 -p cbr -e 500 -c 0 -i 24 -a 0 -x {1.0 3.1 -1 ------- null}
r -t 0.092 -s 1 -d 2 -p cbr -e 500 -c 0 -i 21 -a 0 -x {1.0 3.1 16 ------- null}
+ -t 0.092 -s 2 -d 3 -p cbr -e 500 -c 0 -i 21 -a 0 -x {1.0 3.1 16 ------- null}
- -t 0.0927111111111111 -s 2 -d 3 -p cbr -e 500 -c 0 -i 17 -a 0 -x {1.0 3.1 13 ------- null}
h -t 0.0927111111111111 -s 2 -d 3 -p cbr -e 500 -c 0 -i 17 -a 0 -x {1.0 3.1 -1 ------- null}
r -t 0.0938222222222222 -s 2 -d 3 -p cbr -e 500 -c 0 -i 14 -a 0 -x {1.0 3.1 10 ------- null}
+ -t 0.095 -s 1 -d 2 -p cbr -e 500 -c 0 -i 25 -a 0 -x {1.0 3.1 19 ------- null}
- -t 0.095 -s 1 -d 2 -p cbr -e 500 -c 0 -i 25 -a 0 -x {1.0 3.1 19 ------- null}
h -t 0.095 -s 1 -d 2 -p cbr -e 500 -c 0 -i 25 -a 0 -x {1.0 3.1 -1 ------- null}
r -t 0.0962044444444445 -s 2 -d 0 -p ack -e 40 -c 0 -i 20 -a 0 -x {3.0 0.0 1 ------- null}
+ -t 0.0962044444444445 -s 0 -d 2 -p tcp -e 1040 -c 0 -i 26 -a 0 -x {0.0 3.0 3 ------- null}
- -t 0.0962044444444445 -s 0 -d 2 -p tcp -e 1040 -c 0 -i 26 -a 0 -x {0.0 3.0 3 ------- null}
h -t 0.0962044444444445 -s 0 -d 2 -p tcp -e 1040 -c 0 -i 26 -a 0 -x {0.0 3.0 -1 ------- null}
+ -t 0.0962044444444445 -s 0 -d 2 -p tcp -e 1040 -c 0 -i 27 -a 0 -x {0.0 3.0 4 ------- null}
r -t 0.097 -s 1 -d 2 -p cbr -e 500 -c 0 -i 22 -a 0 -x {1.0 3.1 17 ------- null}
+ -t 0.097 -s 2 -d 3 -p cbr -e 500 -c 0 -i 22 -a 0 -x {1.0 3.1 17 ------- null}
- -t 0.0971555555555556 -s 2 -d 3 -p cbr -e 500 -c 0 -i 18 -a 0 -x {1.0 3.1 14 ------- null}
h -t 0.0971555555555556 -s 2 -d 3 -p cbr -e 500 -c 0 -i 18 -a 0 -x {1.0 3.1 -1 ------- null}
r -t 0.0982666666666667 -s 2 -d 3 -p cbr -e 500 -c 0 -i 15 -a 0 -x {1.0 3.1 11 ------- null}
r -t 0.0997333333333333 -s 3 -d 2 -p ack -e 40 -c 0 -i 23 -a 0 -x {3.0 0.0 2 ------- null}
+ -t 0.0997333333333333 -s 2 -d 0 -p ack -e 40 -c 0 -i 23 -a 0 -x {3.0 0.0 2 ------- null}
- -t 0.0997333333333333 -s 2 -d 0 -p ack -e 40 -c 0 -i 23 -a 0 -x {3.0 0.0 2 ------- null}
h -t 0.0997333333333333 -s 2 -d 0 -p ack -e 40 -c 0 -i 23 -a 0 -x {3.0 0.0 -1 ------- null}
+ -t 0.1 -s 1 -d 2 -p cbr -e 500 -c 0 -i 28 -a 0 -x {1.0 3.1 20 ------- null}
- -t 0.1 -s 1 -d 2 -p cbr -e 500 -c 0 -i 28 -a 0 -x {1.0 3.1 20 ------- null}
h -t 0.1 -s 1 -d 2 -p cbr -e 500 -c 0 -i 28 -a 0 -x {1.0 3.1 -1 ------- null}
- -t 0.100364444444444 -s 0 -d 2 -p tcp -e 1040 -c 0 -i 27 -a 0 -x {0.0 3.0 4 ------- null}
h -t 0.100364444444444 -s 0 -d 2 -p tcp -e 1040 -c 0 -i 27 -a 0 -x {0.0 3.0 -1 ------- null}
- -t 0.1016 -s 2 -d 3 -p cbr -e 500 -c 0 -i 19 -a 0 -x {1.0 3.1 15 ------- null}
h -t 0.1016 -s 2 -d 3 -p cbr -e 500 -c 0 -i 19 -a 0 -x {1.0 3.1 -1 ------- null}
r -t 0.102 -s 1 -d 2 -p cbr -e 500 -c 0 -i 24 -a 0 -x {1.0 3.1 18 ------- null}
+ -t 0.102 -s 2 -d 3 -p cbr -e 500 -c 0 -i 24 -a 0 -x {1.0 3.1 18 ------- null}
r -t 0.102711111111111 -s 2 -d 3 -p cbr -e 500 -c 0 -i 16 -a 0 -x {1.0 3.1 12 ------- null}
+ -t 0.105 -s 1 -d 2 -p cbr -e 500 -c 0 -i 29 -a 0 -x {1.0 3.1 21 ------- null}
- -t 0.105 -s 1 -d 2 -p cbr -e 500 -c 0 -i 29 -a 0 -x {1.0 3.1 21 ------- null}
h -t 0.105 -s 1 -d 2 -p cbr -e 500 -c 0 -i 29 -a 0 -x {1.0 3.1 -1 ------- null}
- -t 0.106044444444444 -s 2 -d 3 -p cbr -e 500 -c 0 -i 21 -a 0 -x {1.0 3.1 16 ------- null}
h -t 0.106044444444444 -s 2 -d 3 -p cbr -e 500 -c 0 -i 21 -a 0 -x {1.0 3.1 -1 ------- null}
r -t 0.107 -s 1 -d 2 -p cbr -e 500 -c 0 -i 25 -a 0 -x {1.0 3.1 19 ------- null}
+ -t 0.107 -s 2 -d 3 -p cbr -e 500 -c 0 -i 25 -a 0 -x {1.0 3.1 19 ------- null}
r -t 0.107155555555556 -s 2 -d 3 -p cbr -e 500 -c 0 -i 17 -a 0 -x {1.0 3.1 13 ------- null}
r -t 0.109893333333333 -s 2 -d 0 -p ack -e 40 -c 0 -i 23 -a 0 -x {3.0 0.0 2 ------- null}
+ -t 0.109893333333333 -s 0 -d 2 -p tcp -e 1040 -c 0 -i 30 -a 0 -x {0.0 3.0 5 ------- null}
- -t 0.109893333333333 -s 0 -d 2 -p tcp -e 1040 -c 0 -i 30 -a 0 -x {0.0 3.0 5 ------- null}
h -t 0.109893333333333 -s 0 -d 2 -p tcp -e 1040 -c 0 -i 30 -a 0 -x {0.0 3.0 -1 ------- null}
+ -t 0.109893333333333 -s 0 -d 2 -p tcp -e 1040 -c 0 -i 31 -a 0 -x {0.0 3.0 6 ------- null}
+ -t 0.11 -s 1 -d 2 -p cbr -e 500 -c 0 -i 32 -a 0 -x {1.0 3.1 22 ------- null}
- -t 0.11 -s 1 -d 2 -p cbr -e 500 -c 0 -i 32 -a 0 -x {1.0 3.1 22 ------- null}
h -t 0.11 -s 1 -d 2 -p cbr -e 500 -c 0 -i 32 -a 0 -x {1.0 3.1 -1 ------- null}
r -t 0.110364444444444 -s 0 -d 2 -p tcp -e 1040 -c 0 -i 26 -a 0 -x {0.0 3.0 3 ------- null}
+ -t 0.110364444444444 -s 2 -d 3 -p tcp -e 1040 -c 0 -i 26 -a 0 -x {0.0 3.0 3 ------- null}
- -t 0.110488888888889 -s 2 -d 3 -p cbr -e 500 -c 0 -i 22 -a 0 -x {1.0 3.1 17 ------- null}
h -t 0.110488888888889 -s 2 -d 3 -p cbr -e 500 -c 0 -i 22 -a 0 -x {1.0 3.1 -1 ------- null}
r -t 0.1116 -s 2 -d 3 -p cbr -e 500 -c 0 -i 18 -a 0 -x {1.0 3.1 14 ------- null}
r -t 0.112 -s 1 -d 2 -p cbr -e 500 -c 0 -i 28 -a 0 -x {1.0 3.1 20 ------- null}
+ -t 0.112 -s 2 -d 3 -p cbr -e 500 -c 0 -i 28 -a 0 -x {1.0 3.1 20 ------- null}
- -t 0.114053333333333 -s 0 -d 2 -p tcp -e 1040 -c 0 -i 31 -a 0 -x {0.0 3.0 6 ------- null}
h -t 0.114053333333333 -s 0 -d 2 -p tcp -e 1040 -c 0 -i 31 -a 0 -x {0.0 3.0 -1 ------- null}
r -t 0.114524444444444 -s 0 -d 2 -p tcp -e 1040 -c 0 -i 27 -a 0 -x {0.0 3.0 4 ------- null}
+ -t 0.114524444444444 -s 2 -d 3 -p tcp -e 1040 -c 0 -i 27 -a 0 -x {0.0 3.0 4 ------- null}
- -t 0.114933333333333 -s 2 -d 3 -p cbr -e 500 -c 0 -i 24 -a 0 -x {1.0 3.1 18 ------- null}
h -t 0.114933333333333 -s 2 -d 3 -p cbr -e 500 -c 0 -i 24 -a 0 -x {1.0 3.1 -1 ------- null}
+ -t 0.115 -s 1 -d 2 -p cbr -e 500 -c 0 -i 33 -a 0 -x {1.0 3.1 23 ------- null}
- -t 0.115 -s 1 -d 2 -p cbr -e 500 -c 0 -i 33 -a 0 -x {1.0 3.1 23 ------- null}
h -t 0.115 -s 1 -d 2 -p cbr -e 500 -c 0 -i 33 -a 0 -x {1.0 3.1 -1 ------- null}
r -t 0.116044444444444 -s 2 -d 3 -p cbr -e 500 -c 0 -i 19 -a 0 -x {1.0 3.1 15 ------- null}
r -t 0.117 -s 1 -d 2 -p cbr -e 500 -c 0 -i 29 -a 0 -x {1.0 3.1 21 ------- null}
+ -t 0.117 -s 2 -d 3 -p cbr -e 500 -c 0 -i 29 -a 0 -x {1.0 3.1 21 ------- null}
- -t 0.119377777777778 -s 2 -d 3 -p cbr -e 500 -c 0 -i 25 -a 0 -x {1.0 3.1 19 ------- null}
h -t 0.119377777777778 -s 2 -d 3 -p cbr -e 500 -c 0 -i 25 -a 0 -x {1.0 3.1 -1 ------- null}
+ -t 0.12 -s 1 -d 2 -p cbr -e 500 -c 0 -i 34 -a 0 -x {1.0 3.1 24 ------- null}
- -t 0.12 -s 1 -d 2 -p cbr -e 500 -c 0 -i 34 -a 0 -x {1.0 3.1 24 ------- null}
h -t 0.12 -s 1 -d 2 -p cbr -e 500 -c 0 -i 34 -a 0 -x {1.0 3.1 -1 ------- null}
r -t 0.120488888888889 -s 2 -d 3 -p cbr -e 500 -c 0 -i 21 -a 0 -x {1.0 3.1 16 ------- null}
r -t 0.122 -s 1 -d 2 -p cbr -e 500 -c 0 -i 32 -a 0 -x {1.0 3.1 22 ------- null}
+ -t 0.122 -s 2 -d 3 -p cbr -e 500 -c 0 -i 32 -a 0 -x {1.0 3.1 22 ------- null}
- -t 0.123822222222222 -s 2 -d 3 -p tcp -e 1040 -c 0 -i 26 -a 0 -x {0.0 3.0 3 ------- null}
h -t 0.123822222222222 -s 2 -d 3 -p tcp -e 1040 -c 0 -i 26 -a 0 -x {0.0 3.0 -1 ------- null}
r -t 0.124053333333333 -s 0 -d 2 -p tcp -e 1040 -c 0 -i 30 -a 0 -x {0.0 3.0 5 ------- null}
+ -t 0.124053333333333 -s 2 -d 3 -p tcp -e 1040 -c 0 -i 30 -a 0 -x {0.0 3.0 5 ------- null}
r -t 0.124933333333333 -s 2 -d 3 -p cbr -e 500 -c 0 -i 22 -a 0 -x {1.0 3.1 17 ------- null}
+ -t 0.125 -s 1 -d 2 -p cbr -e 500 -c 0 -i 35 -a 0 -x {1.0 3.1 25 ------- null}
- -t 0.125 -s 1 -d 2 -p cbr -e 500 -c 0 -i 35 -a 0 -x {1.0 3.1 25 ------- null}
h -t 0.125 -s 1 -d 2 -p cbr -e 500 -c 0 -i 35 -a 0 -x {1.0 3.1 -1 ------- null}
r -t 0.127 -s 1 -d 2 -p cbr -e 500 -c 0 -i 33 -a 0 -x {1.0 3.1 23 ------- null}
+ -t 0.127 -s 2 -d 3 -p cbr -e 500 -c 0 -i 33 -a 0 -x {1.0 3.1 23 ------- null}
r -t 0.128213333333333 -s 0 -d 2 -p tcp -e 1040 -c 0 -i 31 -a 0 -x {0.0 3.0 6 ------- null}
+ -t 0.128213333333333 -s 2 -d 3 -p tcp -e 1040 -c 0 -i 31 -a 0 -x {0.0 3.0 6 ------- null}
r -t 0.129377777777778 -s 2 -d 3 -p cbr -e 500 -c 0 -i 24 -a 0 -x {1.0 3.1 18 ------- null}
+ -t 0.13 -s 1 -d 2 -p cbr -e 500 -c 0 -i 36 -a 0 -x {1.0 3.1 26 ------- null}
- -t 0.13 -s 1 -d 2 -p cbr -e 500 -c 0 -i 36 -a 0 -x {1.0 3.1 26 ------- null}
h -t 0.13 -s 1 -d 2 -p cbr -e 500 -c 0 -i 36 -a 0 -x {1.0 3.1 -1 ------- null}
r -t 0.132 -s 1 -d 2 -p cbr -e 500 -c 0 -i 34 -a 0 -x {1.0 3.1 24 ------- null}
+ -t 0.132 -s 2 -d 3 -p cbr -e 500 -c 0 -i 34 -a 0 -x {1.0 3.1 24 ------- null}
- -t 0.133066666666667 -s 2 -d 3 -p cbr -e 500 -c 0 -i 28 -a 0 -x {1.0 3.1 20 ------- null}
h -t 0.133066666666667 -s 2 -d 3 -p cbr -e 500 -c 0 -i 28 -a 0 -x {1.0 3.1 -1 ------- null}
r -t 0.133822222222222 -s 2 -d 3 -p cbr -e 500 -c 0 -i 25 -a 0 -x {1.0 3.1 19 ------- null}
+ -t 0.135 -s 1 -d 2 -p cbr -e 500 -c 0 -i 37 -a 0 -x {1.0 3.1 27 ------- null}
- -t 0.135 -s 1 -d 2 -p cbr -e 500 -c 0 -i 37 -a 0 -x {1.0 3.1 27 ------- null}
h -t 0.135 -s 1 -d 2 -p cbr -e 500 -c 0 -i 37 -a 0 -x {1.0 3.1 -1 ------- null}
r -t 0.137 -s 1 -d 2 -p cbr -e 500 -c 0 -i 35 -a 0 -x {1.0 3.1 25 ------- null}
+ -t 0.137 -s 2 -d 3 -p cbr -e 500 -c 0 -i 35 -a 0 -x {1.0 3.1 25 ------- null}
- -t 0.137511111111111 -s 2 -d 3 -p tcp -e 1040 -c 0 -i 27 -a 0 -x {0.0 3.0 4 ------- null}
h -t 0.137511111111111 -s 2 -d 3 -p tcp -e 1040 -c 0 -i 27 -a 0 -x {0.0 3.0 -1 ------- null}
+ -t 0.14 -s 1 -d 2 -p cbr -e 500 -c 0 -i 38 -a 0 -x {1.0 3.1 28 ------- null}
- -t 0.14 -s 1 -d 2 -p cbr -e 500 -c 0 -i 38 -a 0 -x {1.0 3.1 28 ------- null}
h -t 0.14 -s 1 -d 2 -p cbr -e 500 -c 0 -i 38 -a 0 -x {1.0 3.1 -1 ------- null}
r -t 0.142 -s 1 -d 2 -p cbr -e 500 -c 0 -i 36 -a 0 -x {1.0 3.1 26 ------- null}
+ -t 0.142 -s 2 -d 3 -p cbr -e 500 -c 0 -i 36 -a 0 -x {1.0 3.1 26 ------- null}
r -t 0.143066666666667 -s 2 -d 3 -p tcp -e 1040 -c 0 -i 26 -a 0 -x {0.0 3.0 3 ------- null}
+ -t 0.143066666666667 -s 3 -d 2 -p ack -e 40 -c 0 -i 39 -a 0 -x {3.0 0.0 3 ------- null}
- -t 0.143066666666667 -s 3 -d 2 -p ack -e 40 -c 0 -i 39 -a 0 -x {3.0 0.0 3 ------- null}
h -t 0.143066666666667 -s 3 -d 2 -p ack -e 40 -c 0 -i 39 -a 0 -x {3.0 0.0 -1 ------- null}
+ -t 0.145 -s 1 -d 2 -p cbr -e 500 -c 0 -i 40 -a 0 -x {1.0 3.1 29 ------- null}
- -t 0.145 -s 1 -d 2 -p cbr -e 500 -c 0 -i 40 -a 0 -x {1.0 3.1 29 ------- null}
h -t 0.145 -s 1 -d 2 -p cbr -e 500 -c 0 -i 40 -a 0 -x {1.0 3.1 -1 ------- null}
- -t 0.146755555555556 -s 2 -d 3 -p cbr -e 500 -c 0 -i 29 -a 0 -x {1.0 3.1 21 ------- null}
h -t 0.146755555555556 -s 2 -d 3 -p cbr -e 500 -c 0 -i 29 -a 0 -x {1.0 3.1 -1 ------- null}
r -t 0.147 -s 1 -d 2 -p cbr -e 500 -c 0 -i 37 -a 0 -x {1.0 3.1 27 ------- null}
+ -t 0.147 -s 2 -d 3 -p cbr -e 500 -c 0 -i 37 -a 0 -x {1.0 3.1 27 ------- null}
r -t 0.147511111111111 -s 2 -d 3 -p cbr -e 500 -c 0 -i 28 -a 0 -x {1.0 3.1 20 ------- null}
+ -t 0.15 -s 1 -d 2 -p cbr -e 500 -c 0 -i 41 -a 0 -x {1.0 3.1 30 ------- null}
- -t 0.15 -s 1 -d 2 -p cbr -e 500 -c 0 -i 41 -a 0 -x {1.0 3.1 30 ------- null}
h -t 0.15 -s 1 -d 2 -p cbr -e 500 -c 0 -i 41 -a 0 -x {1.0 3.1 -1 ------- null}
- -t 0.1512 -s 2 -d 3 -p cbr -e 500 -c 0 -i 32 -a 0 -x {1.0 3.1 22 ------- null}
h -t 0.1512 -s 2 -d 3 -p cbr -e 500 -c 0 -i 32 -a 0 -x {1.0 3.1 -1 ------- null}
r -t 0.152 -s 1 -d 2 -p cbr -e 500 -c 0 -i 38 -a 0 -x {1.0 3.1 28 ------- null}
+ -t 0.152 -s 2 -d 3 -p cbr -e 500 -c 0 -i 38 -a 0 -x {1.0 3.1 28 ------- null}
r -t 0.153422222222222 -s 3 -d 2 -p ack -e 40 -c 0 -i 39 -a 0 -x {3.0 0.0 3 ------- null}
+ -t 0.153422222222222 -s 2 -d 0 -p ack -e 40 -c 0 -i 39 -a 0 -x {3.0 0.0 3 ------- null}
- -t 0.153422222222222 -s 2 -d 0 -p ack -e 40 -c 0 -i 39 -a 0 -x {3.0 0.0 3 ------- null}
h -t 0.153422222222222 -s 2 -d 0 -p ack -e 40 -c 0 -i 39 -a 0 -x {3.0 0.0 -1 ------- null}
+ -t 0.155 -s 1 -d 2 -p cbr -e 500 -c 0 -i 42 -a 0 -x {1.0 3.1 31 ------- null}
- -t 0.155 -s 1 -d 2 -p cbr -e 500 -c 0 -i 42 -a 0 -x {1.0 3.1 31 ------- null}
h -t 0.155 -s 1 -d 2 -p cbr -e 500 -c 0 -i 42 -a 0 -x {1.0 3.1 -1 ------- null}
- -t 0.155644444444444 -s 2 -d 3 -p tcp -e 1040 -c 0 -i 30 -a 0 -x {0.0 3.0 5 ------- null}
h -t 0.155644444444444 -s 2 -d 3 -p tcp -e 1040 -c 0 -i 30 -a 0 -x {0.0 3.0 -1 ------- null}
r -t 0.156755555555556 -s 2 -d 3 -p tcp -e 1040 -c 0 -i 27 -a 0 -x {0.0 3.0 4 ------- null}
+ -t 0.156755555555556 -s 3 -d 2 -p ack -e 40 -c 0 -i 43 -a 0 -x {3.0 0.0 4 ------- null}
- -t 0.156755555555556 -s 3 -d 2 -p ack -e 40 -c 0 -i 43 -a 0 -x {3.0 0.0 4 ------- null}
h -t 0.156755555555556 -s 3 -d 2 -p ack -e 40 -c 0 -i 43 -a 0 -x {3.0 0.0 -1 ------- null}
r -t 0.157 -s 1 -d 2 -p cbr -e 500 -c 0 -i 40 -a 0 -x {1.0 3.1 29 ------- null}
+ -t 0.157 -s 2 -d 3 -p cbr -e 500 -c 0 -i 40 -a 0 -x {1.0 3.1 29 ------- null}
+ -t 0.16 -s 1 -d 2 -p cbr -e 500 -c 0 -i 44 -a 0 -x {1.0 3.1 32 ------- null}
- -t 0.16 -s 1 -d 2 -p cbr -e 500 -c 0 -i 44 -a 0 -x {1.0 3.1 32 ------- null}
h -t 0.16 -s 1 -d 2 -p cbr -e 500 -c 0 -i 44 -a 0 -x {1.0 3.1 -1 ------- null}
r -t 0.1612 -s 2 -d 3 -p cbr -e 500 -c 0 -i 29 -a 0 -x {1.0 3.1 21 ------- null}
r -t 0.162 -s 1 -d 2 -p cbr -e 500 -c 0 -i 41 -a 0 -x {1.0 3.1 30 ------- null}
+ -t 0.162 -s 2 -d 3 -p cbr -e 500 -c 0 -i 41 -a 0 -x {1.0 3.1 30 ------- null}
r -t 0.163582222222222 -s 2 -d 0 -p ack -e 40 -c 0 -i 39 -a 0 -x {3.0 0.0 3 ------- null}
+ -t 0.163582222222222 -s 0 -d 2 -p tcp -e 1040 -c 0 -i 45 -a 0 -x {0.0 3.0 7 ------- null}
- -t 0.163582222222222 -s 0 -d 2 -p tcp -e 1040 -c 0 -i 45 -a 0 -x {0.0 3.0 7 ------- null}
h -t 0.163582222222222 -s 0 -d 2 -p tcp -e 1040 -c 0 -i 45 -a 0 -x {0.0 3.0 -1 ------- null}
+ -t 0.163582222222222 -s 0 -d 2 -p tcp -e 1040 -c 0 -i 46 -a 0 -x {0.0 3.0 8 ------- null}
- -t 0.164888888888889 -s 2 -d 3 -p cbr -e 500 -c 0 -i 33 -a 0 -x {1.0 3.1 23 ------- null}
h -t 0.164888888888889 -s 2 -d 3 -p cbr -e 500 -c 0 -i 33 -a 0 -x {1.0 3.1 -1 ------- null}
+ -t 0.165 -s 1 -d 2 -p cbr -e 500 -c 0 -i 47 -a 0 -x {1.0 3.1 33 ------- null}
- -t 0.165 -s 1 -d 2 -p cbr -e 500 -c 0 -i 47 -a 0 -x {1.0 3.1 33 ------- null}
h -t 0.165 -s 1 -d 2 -p cbr -e 500 -c 0 -i 47 -a 0 -x {1.0 3.1 -1 ------- null}
r -t 0.165644444444444 -s 2 -d 3 -p cbr -e 500 -c 0 -i 32 -a 0 -x {1.0 3.1 22 ------- null}
r -t 0.167 -s 1 -d 2 -p cbr -e 500 -c 0 -i 42 -a 0 -x {1.0 3.1 31 ------- null}
+ -t 0.167 -s 2 -d 3 -p cbr -e 500 -c 0 -i 42 -a 0 -x {1.0 3.1 31 ------- null}
r -t 0.167111111111111 -s 3 -d 2 -p ack -e 40 -c 0 -i 43 -a 0 -x {3.0 0.0 4 ------- null}
+ -t 0.167111111111111 -s 2 -d 0 -p ack -e 40 -c 0 -i 43 -a 0 -x {3.0 0.0 4 ------- null}
- -t 0.167111111111111 -s 2 -d 0 -p ack -e 40 -c 0 -i 43 -a 0 -x {3.0 0.0 4 ------- null}
h -t 0.167111111111111 -s 2 -d 0 -p ack -e 40 -c 0 -i 43 -a 0 -x {3.0 0.0 -1 ------- null}
- -t 0.167742222222222 -s 0 -d 2 -p tcp -e 1040 -c 0 -i 46 -a 0 -x {0.0 3.0 8 ------- null}
h -t 0.167742222222222 -s 0 -d 2 -p tcp -e 1040 -c 0 -i 46 -a 0 -x {0.0 3.0 -1 ------- null}
- -t 0.169333333333333 -s 2 -d 3 -p tcp -e 1040 -c 0 -i 31 -a 0 -x {0.0 3.0 6 ------- null}
h -t 0.169333333333333 -s 2 -d 3 -p tcp -e 1040 -c 0 -i 31 -a 0 -x {0.0 3.0 -1 ------- null}
+ -t 0.17 -s 1 -d 2 -p cbr -e 500 -c 0 -i 48 -a 0 -x {1.0 3.1 34 ------- null}
- -t 0.17 -s 1 -d 2 -p cbr -e 500 -c 0 -i 48 -a 0 -x {1.0 3.1 34 ------- null}
h -t 0.17 -s 1 -d 2 -p cbr -e 500 -c 0 -i 48 -a 0 -x {1.0 3.1 -1 ------- null}
r -t 0.172 -s 1 -d 2 -p cbr -e 500 -c 0 -i 44 -a 0 -x {1.0 3.1 32 ------- null}
+ -t 0.172 -s 2 -d 3 -p cbr -e 500 -c 0 -i 44 -a 0 -x {1.0 3.1 32 ------- null}
r -t 0.174888888888889 -s 2 -d 3 -p tcp -e 1040 -c 0 -i 30 -a 0 -x {0.0 3.0 5 ------- null}
+ -t 0.174888888888889 -s 3 -d 2 -p ack -e 40 -c 0 -i 49 -a 0 -x {3.0 0.0 5 ------- null}
- -t 0.174888888888889 -s 3 -d 2 -p ack -e 40 -c 0 -i 49 -a 0 -x {3.0 0.0 5 ------- null}
h -t 0.174888888888889 -s 3 -d 2 -p ack -e 40 -c 0 -i 49 -a 0 -x {3.0 0.0 -1 ------- null}
+ -t 0.175 -s 1 -d 2 -p cbr -e 500 -c 0 -i 50 -a 0 -x {1.0 3.1 35 ------- null}
- -t 0.175 -s 1 -d 2 -p cbr -e 500 -c 0 -i 50 -a 0 -x {1.0 3.1 35 ------- null}
h -t 0.175 -s 1 -d 2 -p cbr -e 500 -c 0 -i 50 -a 0 -x {1.0 3.1 -1 ------- null}
r -t 0.177 -s 1 -d 2 -p cbr -e 500 -c 0 -i 47 -a 0 -x {1.0 3.1 33 ------- null}
+ -t 0.177 -s 2 -d 3 -p cbr -e 500 -c 0 -i 47 -a 0 -x {1.0 3.1 33 ------- null}