V -t * -v 1.0a5 -a 0
A -t * -n 1 -p 0 -o 0xffffffff -c 31 -a 1
A -t * -h 1 -m 2147483647 -s 0
n -t * -a 0 -s 0 -S UP -v circle -c black -i black
n -t * -a 1 -s 1 -S UP -v circle -c black -i black
n -t * -a 2 -s 2 -S UP -v circle -c black -i black
n -t * -a 3 -s 3 -S UP -v circle -c black -i black
l -t * -s 0 -d 2 -S UP -r 2000000 -D 0.02 -c black -o 
l -t * -s 1 -d 2 -S UP -r 2000000 -D 0.02 -c black -o 
l -t * -s 2 -d 3 -S UP -r 2000000 -D 0.02 -c black -o 
+ -t 0 -s 1 -d 2 -p cbr -e 210 -c 0 -i 0 -a 0 -x {1.0 3.1 0 ------- null}
- -t 0 -s 1 -d 2 -p cbr -e 210 -c 0 -i 0 -a 0 -x {1.0 3.1 0 ------- null}
h -t 0 -s 1 -d 2 -p cbr -e 210 -c 0 -i 0 -a 0 -x {1.0 3.1 -1 ------- null}
+ -t 0 -s 0 -d 2 -p tcp -e 40 -c 0 -i 1 -a 0 -x {0.0 3.0 0 ------- null}
- -t 0 -s 0 -d 2 -p tcp -e 40 -c 0 -i 1 -a 0 -x {0.0 3.0 0 ------- null}
h -t 0 -s 0 -d 2 -p tcp -e 40 -c 0 -i 1 -a 0 -x {0.0 3.0 -1 ------- null}
+ -t 0.00375 -s 1 -d 2 -p cbr -e 210 -c 0 -i 2 -a 0 -x {1.0 3.1 1 ------- null}
- -t 0.00375 -s 1 -d 2 -p cbr -e 210 -c 0 -i 2 -a 0 -x {1.0 3.1 1 ------- null}
h -t 0.00375 -s 1 -d 2 -p cbr -e 210 -c 0 -i 2 -a 0 -x {1.0 3.1 -1 ------- null}
+ -t 0.0075 -s 1 -d 2 -p cbr -e 210 -c 0 -i 3 -a 0 -x {1.0 3.1 2 ------- null}
- -t 0.0075 -s 1 -d 2 -p cbr -e 210 -c 0 -i 3 -a 0 -x {1.0 3.1 2 ------- null}
h -t 0.0075 -s 1 -d 2 -p cbr -e 210 -c 0 -i 3 -a 0 -x {1.0 3.1 -1 ------- null}
+ -t 0.01125 -s 1 -d 2 -p cbr -e 210 -c 0 -i 4 -a 0 -x {1.0 3.1 3 ------- null}
- -t 0.01125 -s 1 -d 2 -p cbr -e 210 -c 0 -i 4 -a 0 -x {1.0 3.1 3 ------- null}
h -t 0.01125 -s 1 -d 2 -p cbr -e 210 -c 0 -i 4 -a 0 -x {1.0 3.1 -1 ------- null}
+ -t 0.015 -s 1 -d 2 -p cbr -e 210 -c 0 -i 5 -a 0 -x {1.0 3.1 4 ------- null}
- -t 0.015 -s 1 -d 2 -p cbr -e 210 -c 0 -i 5 -a 0 -x {1.0 3.1 4 ------- null}
h -t 0.015 -s 1 -d 2 -p cbr -e 210 -c 0 -i 5 -a 0 -x {1.0 3.1 -1 ------- null}
+ -t 0.01875 -s 1 -d 2 -p cbr -e 210 -c 0 -i 6 -a 0 -x {1.0 3.1 5 ------- null}
- -t 0.01875 -s 1 -d 2 -p cbr -e 210 -c 0 -i 6 -a 0 -x {1.0 3.1 5 ------- null}
h -t 0.01875 -s 1 -d 2 -p cbr -e 210 -c 0 -i 6 -a 0 -x {1.0 3.1 -1 ------- null}
r -t 0.02016 -s 0 -d 2 -p tcp -e 40 -c 0 -i 1 -a 0 -x {0.0 3.0 0 ------- null}
+ -t 0.02016 -s 2 -d 3 -p tcp -e 40 -c 0 -i 1 -a 0 -x {0.0 3.0 0 ------- null}
- -t 0.02016 -s 2 -d 3 -p tcp -e 40 -c 0 -i 1 -a 0 -x {0.0 3.0 0 ------- null}
h -t 0.02016 -s 2 -d 3 -p tcp -e 40 -c 0 -i 1 -a 0 -x {0.0 3.0 -1 ------- null}
r -t 0.02084 -s 1 -d 2 -p cbr -e 210 -c 0 -i 0 -a 0 -x {1.0 3.1 0 ------- null}
+ -t 0.02084 -s 2 -d 3 -p cbr -e 210 -c 0 -i 0 -a 0 -x {1.0 3.1 0 ------- null}
- -t 0.02084 -s 2 -d 3 -p cbr -e 210 -c 0 -i 0 -a 0 -x {1.0 3.1 0 ------- null}
h -t 0.02084 -s 2 -d 3 -p cbr -e 210 -c 0 -i 0 -a 0 -x {1.0 3.1 -1 ------- null}
+ -t 0.0225 -s 1 -d 2 -p cbr -e 210 -c 0 -i 7 -a 0 -x {1.0 3.1 6 ------- null}
- -t 0.0225 -s 1 -d 2 -p cbr -e 210 -c 0 -i 7 -a 0 -x {1.0 3.1 6 ------- null}
h -t 0.0225 -s 1 -d 2 -p cbr -e 210 -c 0 -i 7 -a 0 -x {1.0 3.1 -1 ------- null}
r -t 0.02459 -s 1 -d 2 -p cbr -e 210 -c 0 -i 2 -a 0 -x {1.0 3.1 1 ------- null}
+ -t 0.02459 -s 2 -d 3 -p cbr -e 210 -c 0 -i 2 -a 0 -x {1.0 3.1 1 ------- null}
- -t 0.02459 -s 2 -d 3 -p cbr -e 210 -c 0 -i 2 -a 0 -x {1.0 3.1 1 ------- null}
h -t 0.02459 -s 2 -d 3 -p cbr -e 210 -c 0 -i 2 -a 0 -x {1.0 3.1 -1 ------- null}
+ -t 0.02625 -s 1 -d 2 -p cbr -e 210 -c 0 -i 8 -a 0 -x {1.0 3.1 7 ------- null}
- -t 0.02625 -s 1 -d 2 -p cbr -e 210 -c 0 -i 8 -a 0 -x {1.0 3.1 7 ------- null}
h -t 0.02625 -s 1 -d 2 -p cbr -e 210 -c 0 -i 8 -a 0 -x {1.0 3.1 -1 ------- null}
r -t 0.02834 -s 1 -d 2 -p cbr -e 210 -c 0 -i 3 -a 0 -x {1.0 3.1 2 ------- null}
+ -t 0.02834 -s 2 -d 3 -p cbr -e 210 -c 0 -i 3 -a 0 -x {1.0 3.1 2 ------- null}
- -t 0.02834 -s 2 -d 3 -p cbr -e 210 -c 0 -i 3 -a 0 -x {1.0 3.1 2 ------- null}
h -t 0.02834 -s 2 -d 3 -p cbr -e 210 -c 0 -i 3 -a 0 -x {1.0 3.1 -1 ------- null}
+ -t 0.03 -s 1 -d 2 -p cbr -e 210 -c 0 -i 9 -a 0 -x {1.0 3.1 8 ------- null}
- -t 0.03 -s 1 -d 2 -p cbr -e 210 -c 0 -i 9 -a 0 -x {1.0 3.1 8 ------- null}
h -t 0.03 -s 1 -d 2 -p cbr -e 210 -c 0 -i 9 -a 0 -x {1.0 3.1 -1 ------- null}
r -t 0.03209 -s 1 -d 2 -p cbr -e 210 -c 0 -i 4 -a 0 -x {1.0 3.1 3 ------- null}
+ -t 0.03209 -s 2 -d 3 -p cbr -e 210 -c 0 -i 4 -a 0 -x {1.0 3.1 3 ------- null}
- -t 0.03209 -s 2 -d 3 -p cbr -e 210 -c 0 -i 4 -a 0 -x {1.0 3.1 3 ------- null}
h -t 0.03209 -s 2 -d 3 -p cbr -e 210 -c 0 -i 4 -a 0 -x {1.0 3.1 -1 ------- null}
+ -t 0.03375 -s 1 -d 2 -p cbr -e 210 -c 0 -i 10 -a 0 -x {1.0 3.1 9 ------- null}
- -t 0.03375 -s 1 -d 2 -p cbr -e 210 -c 0 -i 10 -a 0 -x {1.0 3.1 9 ------- null}
h -t 0.03375 -s 1 -d 2 -p cbr -e 210 -c 0 -i 10 -a 0 -x {1.0 3.1 -1 ------- null}
r -t 0.03584 -s 1 -d 2 -p cbr -e 210 -c 0 -i 5 -a 0 -x {1.0 3.1 4 ------- null}
+ -t 0.03584 -s 2 -d 3 -p cbr -e 210 -c 0 -i 5 -a 0 -x {1.0 3.1 4 ------- null}
- -t 0.03584 -s 2 -d 3 -p cbr -e 210 -c 0 -i 5 -a 0 -x {1.0 3.1 4 ------- null}
h -t 0.03584 -s 2 -d 3 -p cbr -e 210 -c 0 -i 5 -a 0 -x {1.0 3.1 -1 ------- null}
+ -t 0.0375 -s 1 -d 2 -p cbr -e 210 -c 0 -i 11 -a 0 -x {1.0 3.1 10 ------- null}
- -t 0.0375 -s 1 -d 2 -p cbr -e 210 -c 0 -i 11 -a 0 -x {1.0 3.1 10 ------- null}
h -t 0.0375 -s 1 -d 2 -p cbr -e 210 -c 0 -i 11 -a 0 -x {1.0 3.1 -1 ------- null}
r -t 0.03959 -s 1 -d 2 -p cbr -e 210 -c 0 -i 6 -a 0 -x {1.0 3.1 5 ------- null}
+ -t 0.03959 -s 2 -d 3 -p cbr -e 210 -c 0 -i 6 -a 0 -x {1.0 3.1 5 ------- null}
- -t 0.03959 -s 2 -d 3 -p cbr -e 210 -c 0 -i 6 -a 0 -x {1.0 3.1 5 ------- null}
h -t 0.03959 -s 2 -d 3 -p cbr -e 210 -c 0 -i 6 -a 0 -x {1.0 3.1 -1 ------- null}
r -t 0.04032 -s 2 -d 3 -p tcp -e 40 -c 0 -i 1 -a 0 -x {0.0 3.0 0 ------- null}
+ -t 0.04032 -s 3 -d 2 -p ack -e 40 -c 0 -i 12 -a 0 -x {3.0 0.0 0 ------- null}
- -t 0.04032 -s 3 -d 2 -p ack -e 40 -c 0 -i 12 -a 0 -x {3.0 0.0 0 ------- null}
h -t 0.04032 -s 3 -d 2 -p ack -e 40 -c 0 -i 12 -a 0 -x {3.0 0.0 -1 ------- null}
+ -t 0.04125 -s 1 -d 2 -p cbr -e 210 -c 0 -i 13 -a 0 -x {1.0 3.1 11 ------- null}
- -t 0.04125 -s 1 -d 2 -p cbr -e 210 -c 0 -i 13 -a 0 -x {1.0 3.1 11 ------- null}
h -t 0.04125 -s 1 -d 2 -p cbr -e 210 -c 0 -i 13 -a 0 -x {1.0 3.1 -1 ------- null}
r -t 0.04168 -s 2 -d 3 -p cbr -e 210 -c 0 -i 0 -a 0 -x {1.0 3.1 0 ------- null}
r -t 0.04334 -s 1 -d 2 -p cbr -e 210 -c 0 -i 7 -a 0 -x {1.0 3.1 6 ------- null}
+ -t 0.04334 -s 2 -d 3 -p cbr -e 210 -c 0 -i 7 -a 0 -x {1.0 3.1 6 ------- null}
- -t 0.04334 -s 2 -d 3 -p cbr -e 210 -c 0 -i 7 -a 0 -x {1.0 3.1 6 ------- null}
h -t 0.04334 -s 2 -d 3 -p cbr -e 210 -c 0 -i 7 -a 0 -x {1.0 3.1 -1 ------- null}
+ -t 0.045 -s 1 -d 2 -p cbr -e 210 -c 0 -i 14 -a 0 -x {1.0 3.1 12 ------- null}
- -t 0.045 -s 1 -d 2 -p cbr -e 210 -c 0 -i 14 -a 0 -x {1.0 3.1 12 ------- null}
h -t 0.045 -s 1 -d 2 -p cbr -e 210 -c 0 -i 14 -a 0 -x {1.0 3.1 -1 ------- null}
r -t 0.04543 -s 2 -d 3 -p cbr -e 210 -c 0 -i 2 -a 0 -x {1.0 3.1 1 ------- null}
r -t 0.04709 -s 1 -d 2 -p cbr -e 210 -c 0 -i 8 -a 0 -x {1.0 3.1 7 ------- null}
+ -t 0.04709 -s 2 -d 3 -p cbr -e 210 -c 0 -i 8 -a 0 -x {1.0 3.1 7 ------- null}
- -t 0.04709 -s 2 -d 3 -p cbr -e 210 -c 0 -i 8 -a 0 -x {1.0 3.1 7 ------- null}
h -t 0.04709 -s 2 -d 3 -p cbr -e 210 -c 0 -i 8 -a 0 -x {1.0 3.1 -1 ------- null}
+ -t 0.04875 -s 1 -d 2 -p cbr -e 210 -c 0 -i 15 -a 0 -x {1.0 3.1 13 ------- null}
- -t 0.04875 -s 1 -d 2 -p cbr -e 210 -c 0 -i 15 -a 0 -x {1.0 3.1 13 ------- null}
h -t 0.04875 -s 1 -d 2 -p cbr -e 210 -c 0 -i 15 -a 0 -x {1.0 3.1 -1 ------- null}
r -t 0.04918 -s 2 -d 3 -p cbr -e 210 -c 0 -i 3 -a 0 -x {1.0 3.1 2 ------- null}
r -t 0.05084 -s 1 -d 2 -p cbr -e 210 -c 0 -i 9 -a 0 -x {1.0 3.1 8 ------- null}
+ -t 0.05084 -s 2 -d 3 -p cbr -e 210 -c 0 -i 9 -a 0 -x {1.0 3.1 8 ------- null}
- -t 0.05084 -s 2 -d 3 -p cbr -e 210 -c 0 -i 9 -a 0 -x {1.0 3.1 8 ------- null}
h -t 0.05084 -s 2 -d 3 -p cbr -e 210 -c 0 -i 9 -a 0 -x {1.0 3.1 -1 ------- null}
+ -t 0.0525 -s 1 -d 2 -p cbr -e 210 -c 0 -i 16 -a 0 -x {1.0 3.1 14 ------- null}
- -t 0.0525 -s 1 -d 2 -p cbr -e 210 -c 0 -i 16 -a 0 -x {1.0 3.1 14 ------- null}
h -t 0.0525 -s 1 -d 2 -p cbr -e 210 -c 0 -i 16 -a 0 -x {1.0 3.1 -1 ------- null}
r -t 0.05293 -s 2 -d 3 -p cbr -e 210 -c 0 -i 4 -a 0 -x {1.0 3.1 3 ------- null}
r -t 0.05459 -s 1 -d 2 -p cbr -e 210 -c 0 -i 10 -a 0 -x {1.0 3.1 9 ------- null}
+ -t 0.05459 -s 2 -d 3 -p cbr -e 210 -c 0 -i 10 -a 0 -x {1.0 3.1 9 ------- null}
- -t 0.05459 -s 2 -d 3 -p cbr -e 210 -c 0 -i 10 -a 0 -x {1.0 3.1 9 ------- null}
h -t 0.05459 -s 2 -d 3 -p cbr -e 210 -c 0 -i 10 -a 0 -x {1.0 3.1 -1 ------- null}
+ -t 0.05625 -s 1 -d 2 -p cbr -e 210 -c 0 -i 17 -a 0 -x {1.0 3.1 15 ------- null}
- -t 0.05625 -s 1 -d 2 -p cbr -e 210 -c 0 -i 17 -a 0 -x {1.0 3.1 15 ------- null}
h -t 0.05625 -s 1 -d 2 -p cbr -e 210 -c 0 -i 17 -a 0 -x {1.0 3.1 -1 ------- null}
r -t 0.05668 -s 2 -d 3 -p cbr -e 210 -c 0 -i 5 -a 0 -x {1.0 3.1 4 ------- null}
r -t 0.05834 -s 1 -d 2 -p cbr -e 210 -c 0 -i 11 -a 0 -x {1.0 3.1 10 ------- null}
+ -t 0.05834 -s 2 -d 3 -p cbr -e 210 -c 0 -i 11 -a 0 -x {1.0 3.1 10 ------- null}
- -t 0.05834 -s 2 -d 3 -p cbr -e 210 -c 0 -i 11 -a 0 -x {1.0 3.1 10 ------- null}
h -t 0.05834 -s 2 -d 3 -p cbr -e 210 -c 0 -i 11 -a 0 -x {1.0 3.1 -1 ------- null}
+ -t 0.06 -s 1 -d 2 -p cbr -e 210 -c 0 -i 18 -a 0 -x {1.0 3.1 16 ------- null}
- -t 0.06 -s 1 -d 2 -p cbr -e 210 -c 0 -i 18 -a 0 -x {1.0 3.1 16 ------- null}
h -t 0.06 -s 1 -d 2 -p cbr -e 210 -c 0 -i 18 -a 0 -x {1.0 3.1 -1 ------- null}
r -t 0.06043 -s 2 -d 3 -p cbr -e 210 -c 0 -i 6 -a 0 -x {1.0 3.1 5 ------- null}
r -t 0.06048 -s 3 -d 2 -p ack -e 40 -c 0 -i 12 -a 0 -x {3.0 0.0 0 ------- null}
+ -t 0.06048 -s 2 -d 0 -p ack -e 40 -c 0 -i 12 -a 0 -x {3.0 0.0 0 ------- null}
- -t 0.06048 -s 2 -d 0 -p ack -e 40 -c 0 -i 12 -a 0 -x {3.0 0.0 0 ------- null}
h -t 0.06048 -s 2 -d 0 -p ack -e 40 -c 0 -i 12 -a 0 -x {3.0 0.0 -1 ------- null}
r -t 0.06209 -s 1 -d 2 -p cbr -e 210 -c 0 -i 13 -a 0 -x {1.0 3.1 11 ------- null}
+ -t 0.06209 -s 2 -d 3 -p cbr -e 210 -c 0 -i 13 -a 0 -x {1.0 3.1 11 ------- null}
- -t 0.06209 -s 2 -d 3 -p cbr -e 210 -c 0 -i 13 -a 0 -x {1.0 3.1 11 ------- null}
h -t 0.06209 -s 2 -d 3 -p cbr -e 210 -c 0 -i 13 -a 0 -x {1.0 3.1 -1 ------- null}
+ -t 0.06375 -s 1 -d 2 -p cbr -e 210 -c 0 -i 19 -a 0 -x {1.0 3.1 17 ------- null}
- -t 0.06375 -s 1 -d 2 -p cbr -e 210 -c 0 -i 19 -a 0 -x {1.0 3.1 17 ------- null}
h -t 0.06375 -s 1 -d 2 -p cbr -e 210 -c 0 -i 19 -a 0 -x {1.0 3.1 -1 ------- null}
r -t 0.06418 -s 2 -d 3 -p cbr -e 210 -c 0 -i 7 -a 0 -x {1.0 3.1 6 ------- null}
r -t 0.06584 -s 1 -d 2 -p cbr -e 210 -c 0 -i 14 -a 0 -x {1.0 3.1 12 ------- null}
+ -t 0.06584 -s 2 -d 3 -p cbr -e 210 -c 0 -i 14 -a 0 -x {1.0 3.1 12 ------- null}
- -t 0.06584 -s 2 -d 3 -p cbr -e 210 -c 0 -i 14 -a 0 -x {1.0 3.1 12 ------- null}
h -t 0.06584 -s 2 -d 3 -p cbr -e 210 -c 0 -i 14 -a 0 -x {1.0 3.1 -1 ------- null}
+ -t 0.0675 -s 1 -d 2 -p cbr -e 210 -c 0 -i 20 -a 0 -x {1.0 3.1 18 ------- null}
- -t 0.0675 -s 1 -d 2 -p cbr -e 210 -c 0 -i 20 -a 0 -x {1.0 3.1 18 ------- null}
h -t 0.0675 -s 1 -d 2 -p cbr -e 210 -c 0 -i 20 -a 0 -x {1.0 3.1 -1 ------- null}
r -t 0.06793 -s 2 -d 3 -p cbr -e 210 -c 0 -i 8 -a 0 -x {1.0 3.1 7 ------- null}
r -t 0.06959 -s 1 -d 2 -p cbr -e 210 -c 0 -i 15 -a 0 -x {1.0 3.1 13 ------- null}
+ -t 0.06959 -s 2 -d 3 -p cbr -e 210 -c 0 -i 15 -a 0 -x {1.0 3.1 13 ------- null}
- -t 0.06959 -s 2 -d 3 -p cbr -e 210 -c 0 -i 15 -a 0 -x {1.0 3.1 13 ------- null}
h -t 0.06959 -s 2 -d 3 -p cbr -e 210 -c 0 -i 15 -a 0 -x {1.0 3.1 -1 ------- null}
+ -t 0.07125 -s 1 -d 2 -p cbr -e 210 -c 0 -i 21 -a 0 -x {1.0 3.1 19 ------- null}
- -t 0.07125 -s 1 -d 2 -p cbr -e 210 -c 0 -i 21 -a 0 -x {1.0 3.1 19 ------- null}
h -t 0.07125 -s 1 -d 2 -p cbr -e 210 -c 0 -i 21 -a 0 -x {1.0 3.1 -1 ------- null}
r -t 0.07168 -s 2 -d 3 -p cbr -e 210 -c 0 -i 9 -a 0 -x {1.0 3.1 8 ------- null}
r -t 0.07334 -s 1 -d 2 -p cbr -e 210 -c 0 -i 16 -a 0 -x {1.0 3.1 14 ------- null}
+ -t 0.07334 -s 2 -d 3 -p cbr -e 210 -c 0 -i 16 -a 0 -x {1.0 3.1 14 ------- null}
- -t 0.07334 -s 2 -d 3 -p cbr -e 210 -c 0 -i 16 -a 0 -x {1.0 3.1 14 ------- null}
h -t 0.07334 -s 2 -d 3 -p cbr -e 210 -c 0 -i 16 -a 0 -x {1.0 3.1 -1 ------- null}
+ -t 0.075 -s 1 -d 2 -p cbr -e 210 -c 0 -i 22 -a 0 -x {1.0 3.1 20 ------- null}
- -t 0.075 -s 1 -d 2 -p cbr -e 210 -c 0 -i 22 -a 0 -x {1.0 3.1 20 ------- null}
h -t 0.075 -s 1 -d 2 -p cbr -e 210 -c 0 -i 22 -a 0 -x {1.0 3.1 -1 ------- null}
r -t 0.07543 -s 2 -d 3 -p cbr -e 210 -c 0 -i 10 -a 0 -x {1.0 3.1 9 ------- null}
r -t 0.07709 -s 1 -d 2 -p cbr -e 210 -c 0 -i 17 -a 0 -x {1.0 3.1 15 ------- null}
+ -t 0.07709 -s 2 -d 3 -p cbr -e 210 -c 0 -i 17 -a 0 -x {1.0 3.1 15 ------- null}
- -t 0.07709 -s 2 -d 3 -p cbr -e 210 -c 0 -i 17 -a 0 -x {1.0 3.1 15 ------- null}
h -t 0.07709 -s 2 -d 3 -p cbr -e 210 -c 0 -i 17 -a 0 -x {1.0 3.1 -1 ------- null}
+ -t 0.07875 -s 1 -d 2 -p cbr -e 210 -c 0 -i 23 -a 0 -x {1.0 3.1 21 ------- null}
- -t 0.07875 -s 1 -d 2 -p cbr -e 210 -c 0 -i 23 -a 0 -x {1.0 3.1 21 ------- null}
h -t 0.07875 -s 1 -d 2 -p cbr -e 210 -c 0 -i 23 -a 0 -x {1.0 3.1 -1 ------- null}
r -t 0.07918 -s 2 -d 3 -p cbr -e 210 -c 0 -i 11 -a 0 -x {1.0 3.1 10 ------- null}
r -t 0.08064 -s 2 -d 0 -p ack -e 40 -c 0 -i 12 -a 0 -x {3.0 0.0 0 ------- null}
+ -t 0.08064 -s 0 -d 2 -p tcp -e 1040 -c 0 -i 24 -a 0 -x {0.0 3.0 1 ------- null}
- -t 0.08064 -s 0 -d 2 -p tcp -e 1040 -c 0 -i 24 -a 0 -x {0.0 3.0 1 ------- null}
h -t 0.08064 -s 0 -d 2 -p tcp -e 1040 -c 0 -i 24 -a 0 -x {0.0 3.0 -1 ------- null}
+ -t 0.08064 -s 0 -d 2 -p tcp -e 1040 -c 0 -i 25 -a 0 -x {0.0 3.0 2 ------- null}
r -t 0.08084 -s 1 -d 2 -p cbr -e 210 -c 0 -i 18 -a 0 -x {1.0 3.1 16 ------- null}
+ -t 0.08084 -s 2 -d 3 -p cbr -e 210 -c 0 -i 18 -a 0 -x {1.0 3.1 16 ------- null}
- -t 0.08084 -s 2 -d 3 -p cbr -e 210 -c 0 -i 18 -a 0 -x {1.0 3.1 16 ------- null}
h -t 0.08084 -s 2 -d 3 -p cbr -e 210 -c 0 -i 18 -a 0 -x {1.0 3.1 -1 ------- null}
+ -t 0.0825 -s 1 -d 2 -p cbr -e 210 -c 0 -i 26 -a 0 -x {1.0 3.1 22 ------- null}
- -t 0.0825 -s 1 -d 2 -p cbr -e 210 -c 0 -i 26 -a 0 -x {1.0 3.1 22 ------- null}
h -t 0.0825 -s 1 -d 2 -p cbr -e 210 -c 0 -i 26 -a 0 -x {1.0 3.1 -1 ------- null}
r -t 0.08293 -s 2 -d 3 -p cbr -e 210 -c 0 -i 13 -a 0 -x {1.0 3.1 11 ------- null}
r -t 0.08459 -s 1 -d 2 -p cbr -e 210 -c 0 -i 19 -a 0 -x {1.0 3.1 17 ------- null}
+ -t 0.08459 -s 2 -d 3 -p cbr -e 210 -c 0 -i 19 -a 0 -x {1.0 3.1 17 ------- null}
- -t 0.08459 -s 2 -d 3 -p cbr -e 210 -c 0 -i 19 -a 0 -x {1.0 3.1 17 ------- null}
h -t 0.08459 -s 2 -d 3 -p cbr -e 210 -c 0 -i 19 -a 0 -x {1.0 3.1 -1 ------- null}
- -t 0.0848 -s 0 -d 2 -p tcp -e 1040 -c 0 -i 25 -a 0 -x {0.0 3.0 2 ------- null}
h -t 0.0848 -s 0 -d 2 -p tcp -e 1040 -c 0 -i 25 -a 0 -x {0.0 3.0 -1 ------- null}
+ -t 0.08625 -s 1 -d 2 -p cbr -e 210 -c 0 -i 27 -a 0 -x {1.0 3.1 23 ------- null}
- -t 0.08625 -s 1 -d 2 -p cbr -e 210 -c 0 -i 27 -a 0 -x {1.0 3.1 23 ------- null}
h -t 0.08625 -s 1 -d 2 -p cbr -e 210 -c 0 -i 27 -a 0 -x {1.0 3.1 -1 ------- null}
r -t 0.08668 -s 2 -d 3 -p cbr -e 210 -c 0 -i 14 -a 0 -x {1.0 3.1 12 ------- null}
r -t 0.08834 -s 1 -d 2 -p cbr -e 210 -c 0 -i 20 -a 0 -x {1.0 3.1 18 ------- null}
+ -t 0.08834 -s 2 -d 3 -p cbr -e 210 -c 0 -i 20 -a 0 -x {1.0 3.1 18 ------- null}
- -t 0.08834 -s 2 -d 3 -p cbr -e 210 -c 0 -i 20 -a 0 -x {1.0 3.1 18 ------- null}
h -t 0.08834 -s 2 -d 3 -p cbr -e 210 -c 0 -i 20 -a 0 -x {1.0 3.1 -1 ------- null}
+ -t 0.0900000000000001 -s 1 -d 2 -p cbr -e 210 -c 0 -i 28 -a 0 -x {1.0 3.1 24 ------- null}
- -t 0.0900000000000001 -s 1 -d 2 -p cbr -e 210 -c 0 -i 28 -a 0 -x {1.0 3.1 24 ------- null}
h -t 0.0900000000000001 -s 1 -d 2 -p cbr -e 210 -c 0 -i 28 -a 0 -x {1.0 3.1 -1 ------- null}
r -t 0.09043 -s 2 -d 3 -p cbr -e 210 -c 0 -i 15 -a 0 -x {1.0 3.1 13 ------- null}
r -t 0.09209 -s 1 -d 2 -p cbr -e 210 -c 0 -i 21 -a 0 -x {1.0 3.1 19 ------- null}
+ -t 0.09209 -s 2 -d 3 -p cbr -e 210 -c 0 -i 21 -a 0 -x {1.0 3.1 19 ------- null}
- -t 0.09209 -s 2 -d 3 -p cbr -e 210 -c 0 -i 21 -a 0 -x {1.0 3.1 19 ------- null}
h -t 0.09209 -s 2 -d 3 -p cbr -e 210 -c 0 -i 21 -a 0 -x {1.0 3.1 -1 ------- null}
+ -t 0.0937500000000001 -s 1 -d 2 -p cbr -e 210 -c 0 -i 29 -a 0 -x {1.0 3.1 25 ------- null}
- -t 0.0937500000000001 -s 1 -d 2 -p cbr -e 210 -c 0 -i 29 -a 0 -x {1.0 3.1 25 ------- null}
h -t 0.0937500000000001 -s 1 -d 2 -p cbr -e 210 -c 0 -i 29 -a 0 -x {1.0 3.1 -1 ------- null}
r -t 0.09418 -s 2 -d 3 -p cbr -e 210 -c 0 -i 16 -a 0 -x {1.0 3.1 14 ------- null}
r -t 0.09584 -s 1 -d 2 -p cbr -e 210 -c 0 -i 22 -a 0 -x {1.0 3.1 20 ------- null}
+ -t 0.09584 -s 2 -d 3 -p cbr -e 210 -c 0 -i 22 -a 0 -x {1.0 3.1 20 ------- null}
- -t 0.09584 -s 2 -d 3 -p cbr -e 210 -c 0 -i 22 -a 0 -x {1.0 3.1 20 ------- null}
h -t 0.09584 -s 2 -d 3 -p cbr -e 210 -c 0 -i 22 -a 0 -x {1.0 3.1 -1 ------- null}
+ -t 0.0975000000000001 -s 1 -d 2 -p cbr -e 210 -c 0 -i 30 -a 0 -x {1.0 3.1 26 ------- null}
- -t 0.0975000000000001 -s 1 -d 2 -p cbr -e 210 -c 0 -i 30 -a 0 -x {1.0 3.1 26 ------- null}
h -t 0.0975000000000001 -s 1 -d 2 -p cbr -e 210 -c 0 -i 30 -a 0 -x {1.0 3.1 -1 ------- null}
r -t 0.09793 -s 2 -d 3 -p cbr -e 210 -c 0 -i 17 -a 0 -x {1.0 3.1 15 ------- null}
r -t 0.09959 -s 1 -d 2 -p cbr -e 210 -c 0 -i 23 -a 0 -x {1.0 3.1 21 ------- null}
+ -t 0.09959 -s 2 -d 3 -p cbr -e 210 -c 0 -i 23 -a 0 -x {1.0 3.1 21 ------- null}
- -t 0.09959 -s 2 -d 3 -p cbr -e 210 -c 0 -i 23 -a 0 -x {1.0 3.1 21 ------- null}
h -t 0.09959 -s 2 -d 3 -p cbr -e 210 -c 0 -i 23 -a 0 -x {1.0 3.1 -1 ------- null}
+ -t 0.10125 -s 1 -d 2 -p cbr -e 210 -c 0 -i 31 -a 0 -x {1.0 3.1 27 ------- null}
- -t 0.10125 -s 1 -d 2 -p cbr -e 210 -c 0 -i 31 -a 0 -x {1.0 3.1 27 ------- null}
h -t 0.10125 -s 1 -d 2 -p cbr -e 210 -c 0 -i 31 -a 0 -x {1.0 3.1 -1 ------- null}
r -t 0.10168 -s 2 -d 3 -p cbr -e 210 -c 0 -i 18 -a 0 -x {1.0 3.1 16 ------- null}
r -t 0.10334 -s 1 -d 2 -p cbr -e 210 -c 0 -i 26 -a 0 -x {1.0 3.1 22 ------- null}
+ -t 0.10334 -s 2 -d 3 -p cbr -e 210 -c 0 -i 26 -a 0 -x {1.0 3.1 22 ------- null}
- -t 0.10334 -s 2 -d 3 -p cbr -e 210 -c 0 -i 26 -a 0 -x {1.0 3.1 22 ------- null}
h -t 0.10334 -s 2 -d 3 -p cbr -e 210 -c 0 -i 26 -a 0 -x {1.0 3.1 -1 ------- null}
r -t 0.1048 -s 0 -d 2 -p tcp -e 1040 -c 0 -i 24 -a 0 -x {0.0 3.0 1 ------- null}
+ -t 0.1048 -s 2 -d 3 -p tcp -e 1040 -c 0 -i 24 -a 0 -x {0.0 3.0 1 ------- null}
- -t 0.1048 -s 2 -d 3 -p tcp -e 1040 -c 0 -i 24 -a 0 -x {0.0 3.0 1 ------- null}
h -t 0.1048 -s 2 -d 3 -p tcp -e 1040 -c 0 -i 24 -a 0 -x {0.0 3.0 -1 ------- null}
+ -t 0.105 -s 1 -d 2 -p cbr -e 210 -c 0 -i 32 -a 0 -x {1.0 3.1 28 ------- null}
- -t 0.105 -s 1 -d 2 -p cbr -e 210 -c 0 -i 32 -a 0 -x {1.0 3.1 28 ------- null}
h -t 0.105 -s 1 -d 2 -p cbr -e 210 -c 0 -i 32 -a 0 -x {1.0 3.1 -1 ------- null}
r -t 0.10543 -s 2 -d 3 -p cbr -e 210 -c 0 -i 19 -a 0 -x {1.0 3.1 17 ------- null}
r -t 0.10709 -s 1 -d 2 -p cbr -e 210 -c 0 -i 27 -a 0 -x {1.0 3.1 23 ------- null}
+ -t 0.10709 -s 2 -d 3 -p cbr -e 210 -c 0 -i 27 -a 0 -x {1.0 3.1 23 ------- null}
+ -t 0.10875 -s 1 -d 2 -p cbr -e 210 -c 0 -i 33 -a 0 -x {1.0 3.1 29 ------- null}
- -t 0.10875 -s 1 -d 2 -p cbr -e 210 -c 0 -i 33 -a 0 -x {1.0 3.1 29 ------- null}
h -t 0.10875 -s 1 -d 2 -p cbr -e 210 -c 0 -i 33 -a 0 -x {1.0 3.1 -1 ------- null}
r -t 0.10896 -s 0 -d 2 -p tcp -e 1040 -c 0 -i 25 -a 0 -x {0.0 3.0 2 ------- null}
+ -t 0.10896 -s 2 -d 3 -p tcp -e 1040 -c 0 -i 25 -a 0 -x {0.0 3.0 2 ------- null}
- -t 0.10896 -s 2 -d 3 -p cbr -e 210 -c 0 -i 27 -a 0 -x {1.0 3.1 23 ------- null}
h -t 0.10896 -s 2 -d 3 -p cbr -e 210 -c 0 -i 27 -a 0 -x {1.0 3.1 -1 ------- null}
r -t 0.10918 -s 2 -d 3 -p cbr -e 210 -c 0 -i 20 -a 0 -x {1.0 3.1 18 ------- null}
- -t 0.1098 -s 2 -d 3 -p tcp -e 1040 -c 0 -i 25 -a 0 -x {0.0 3.0 2 ------- null}
h -t 0.1098 -s 2 -d 3 -p tcp -e 1040 -c 0 -i 25 -a 0 -x {0.0 3.0 -1 ------- null}
r -t 0.11084 -s 1 -d 2 -p cbr -e 210 -c 0 -i 28 -a 0 -x {1.0 3.1 24 ------- null}
+ -t 0.11084 -s 2 -d 3 -p cbr -e 210 -c 0 -i 28 -a 0 -x {1.0 3.1 24 ------- null}
+ -t 0.1125 -s 1 -d 2 -p cbr -e 210 -c 0 -i 34 -a 0 -x {1.0 3.1 30 ------- null}
- -t 0.1125 -s 1 -d 2 -p cbr -e 210 -c 0 -i 34 -a 0 -x {1.0 3.1 30 ------- null}
h -t 0.1125 -s 1 -d 2 -p cbr -e 210 -c 0 -i 34 -a 0 -x {1.0 3.1 -1 ------- null}
r -t 0.11293 -s 2 -d 3 -p cbr -e 210 -c 0 -i 21 -a 0 -x {1.0 3.1 19 ------- null}
- -t 0.11396 -s 2 -d 3 -p cbr -e 210 -c 0 -i 28 -a 0 -x {1.0 3.1 24 ------- null}
h -t 0.11396 -s 2 -d 3 -p cbr -e 210 -c 0 -i 28 -a 0 -x {1.0 3.1 -1 ------- null}
r -t 0.11459 -s 1 -d 2 -p cbr -e 210 -c 0 -i 29 -a 0 -x {1.0 3.1 25 ------- null}
+ -t 0.11459 -s 2 -d 3 -p cbr -e 210 -c 0 -i 29 -a 0 -x {1.0 3.1 25 ------- null}
- -t 0.1148 -s 2 -d 3 -p cbr -e 210 -c 0 -i 29 -a 0 -x {1.0 3.1 25 ------- null}
h -t 0.1148 -s 2 -d 3 -p cbr -e 210 -c 0 -i 29 -a 0 -x {1.0 3.1 -1 ------- null}
+ -t 0.11625 -s 1 -d 2 -p cbr -e 210 -c 0 -i 35 -a 0 -x {1.0 3.1 31 ------- null}
- -t 0.11625 -s 1 -d 2 -p cbr -e 210 -c 0 -i 35 -a 0 -x {1.0 3.1 31 ------- null}
h -t 0.11625 -s 1 -d 2 -p cbr -e 210 -c 0 -i 35 -a 0 -x {1.0 3.1 -1 ------- null}
r -t 0.11668 -s 2 -d 3 -p cbr -e 210 -c 0 -i 22 -a 0 -x {1.0 3.1 20 ------- null}
r -t 0.11834 -s 1 -d 2 -p cbr -e 210 -c 0 -i 30 -a 0 -x {1.0 3.1 26 ------- null}
+ -t 0.11834 -s 2 -d 3 -p cbr -e 210 -c 0 -i 30 -a 0 -x {1.0 3.1 26 ------- null}
- -t 0.11834 -s 2 -d 3 -p cbr -e 210 -c 0 -i 30 -a 0 -x {1.0 3.1 26 ------- null}
h -t 0.11834 -s 2 -d 3 -p cbr -e 210 -c 0 -i 30 -a 0 -x {1.0 3.1 -1 ------- null}
+ -t 0.12 -s 1 -d 2 -p cbr -e 210 -c 0 -i 36 -a 0 -x {1.0 3.1 32 ------- null}
- -t 0.12 -s 1 -d 2 -p cbr -e 210 -c 0 -i 36 -a 0 -x {1.0 3.1 32 ------- null}
h -t 0.12 -s 1 -d 2 -p cbr -e 210 -c 0 -i 36 -a 0 -x {1.0 3.1 -1 ------- null}
r -t 0.12043 -s 2 -d 3 -p cbr -e 210 -c 0 -i 23 -a 0 -x {1.0 3.1 21 ------- null}
r -t 0.12209 -s 1 -d 2 -p cbr -e 210 -c 0 -i 31 -a 0 -x {1.0 3.1 27 ------- null}
+ -t 0.12209 -s 2 -d 3 -p cbr -e 210 -c 0 -i 31 -a 0 -x {1.0 3.1 27 ------- null}
- -t 0.12209 -s 2 -d 3 -p cbr -e 210 -c 0 -i 31 -a 0 -x {1.0 3.1 27 ------- null}
h -t 0.12209 -s 2 -d 3 -p cbr -e 210 -c 0 -i 31 -a 0 -x {1.0 3.1 -1 ------- null}
+ -t 0.12375 -s 1 -d 2 -p cbr -e 210 -c 0 -i 37 -a 0 -x {1.0 3.1 33 ------- null}
- -t 0.12375 -s 1 -d 2 -p cbr -e 210 -c 0 -i 37 -a 0 -x {1.0 3.1 33 ------- null}
h -t 0.12375 -s 1 -d 2 -p cbr -e 210 -c 0 -i 37 -a 0 -x {1.0 3.1 -1 ------- null}
r -t 0.12418 -s 2 -d 3 -p cbr -e 210 -c 0 -i 26 -a 0 -x {1.0 3.1 22 ------- null}
r -t 0.12584 -s 1 -d 2 -p cbr -e 210 -c 0 -i 32 -a 0 -x {1.0 3.1 28 ------- null}
+ -t 0.12584 -s 2 -d 3 -p cbr -e 210 -c 0 -i 32 -a 0 -x {1.0 3.1 28 ------- null}
- -t 0.12584 -s 2 -d 3 -p cbr -e 210 -c 0 -i 32 -a 0 -x {1.0 3.1 28 ------- null}
h -t 0.12584 -s 2 -d 3 -p cbr -e 210 -c 0 -i 32 -a 0 -x {1.0 3.1 -1 ------- null}
+ -t 0.1275 -s 1 -d 2 -p cbr -e 210 -c 0 -i 38 -a 0 -x {1.0 3.1 34 ------- null}
- -t 0.1275 -s 1 -d 2 -p cbr -e 210 -c 0 -i 38 -a 0 -x {1.0 3.1 34 ------- null}
h -t 0.1275 -s 1 -d 2 -p cbr -e 210 -c 0 -i 38 -a 0 -x {1.0 3.1 -1 ------- null}
r -t 0.12896 -s 2 -d 3 -p tcp -e 1040 -c 0 -i 24 -a 0 -x {0.0 3.0 1 ------- null}
+ -t 0.12896 -s 3 -d 2 -p ack -e 40 -c 0 -i 39 -a 0 -x {3.0 0.0 1 ------- null}
- -t 0.12896 -s 3 -d 2 -p ack -e 40 -c 0 -i 39 -a 0 -x {3.0 0.0 1 ------- null}
h -t 0.12896 -s 3 -d 2 -p ack -e 40 -c 0 -i 39 -a 0 -x {3.0 0.0 -1 ------- null}
r -t 0.12959 -s 1 -d 2 -p cbr -e 210 -c 0 -i 33 -a 0 -x {1.0 3.1 29 ------- null}
+ -t 0.12959 -s 2 -d 3 -p cbr -e 210 -c 0 -i 33 -a 0 -x {1.0 3.1 29 ------- null}
- -t 0.12959 -s 2 -d 3 -p cbr -e 210 -c 0 -i 33 -a 0 -x {1.0 3.1 29 ------- null}
h -t 0.12959 -s 2 -d 3 -p cbr -e 210 -c 0 -i 33 -a 0 -x {1.0 3.1 -1 ------- null}
r -t 0.1298 -s 2 -d 3 -p cbr -e 210 -c 0 -i 27 -a 0 -x {1.0 3.1 23 ------- null}
+ -t 0.13125 -s 1 -d 2 -p cbr -e 210 -c 0 -i 40 -a 0 -x {1.0 3.1 35 ------- null}
- -t 0.13125 -s 1 -d 2 -p cbr -e 210 -c 0 -i 40 -a 0 -x {1.0 3.1 35 ------- null}
h -t 0.13125 -s 1 -d 2 -p cbr -e 210 -c 0 -i 40 -a 0 -x {1.0 3.1 -1 ------- null}
r -t 0.13334 -s 1 -d 2 -p cbr -e 210 -c 0 -i 34 -a 0 -x {1.0 3.1 30 ------- null}
+ -t 0.13334 -s 2 -d 3 -p cbr -e 210 -c 0 -i 34 -a 0 -x {1.0 3.1 30 ------- null}
- -t 0.13334 -s 2 -d 3 -p cbr -e 210 -c 0 -i 34 -a 0 -x {1.0 3.1 30 ------- null}
h -t 0.13334 -s 2 -d 3 -p cbr -e 210 -c 0 -i 34 -a 0 -x {1.0 3.1 -1 ------- null}
r -t 0.13396 -s 2 -d 3 -p tcp -e 1040 -c 0 -i 25 -a 0 -x {0.0 3.0 2 ------- null}
+ -t 0.13396 -s 3 -d 2 -p ack -e 40 -c 0 -i 41 -a 0 -x {3.0 0.0 2 ------- null}
- -t 0.13396 -s 3 -d 2 -p ack -e 40 -c 0 -i 41 -a 0 -x {3.0 0.0 2 ------- null}
h -t 0.13396 -s 3 -d 2 -p ack -e 40 -c 0 -i 41 -a 0 -x {3.0 0.0 -1 ------- null}
r -t 0.1348 -s 2 -d 3 -p cbr -e 210 -c 0 -i 28 -a 0 -x {1.0 3.1 24 ------- null}
+ -t 0.135 -s 1 -d 2 -p cbr -e 210 -c 0 -i 42 -a 0 -x {1.0 3.1 36 ------- null}
- -t 0.135 -s 1 -d 2 -p cbr -e 210 -c 0 -i 42 -a 0 -x {1.0 3.1 36 ------- null}
h -t 0.135 -s 1 -d 2 -p cbr -e 210 -c 0 -i 42 -a 0 -x {1.0 3.1 -1 ------- null}
r -t 0.13564 -s 2 -d 3 -p cbr -e 210 -c 0 -i 29 -a 0 -x {1.0 3.1 25 ------- null}
r -t 0.13709 -s 1 -d 2 -p cbr -e 210 -c 0 -i 35 -a 0 -x {1.0 3.1 31 ------- null}
+ -t 0.13709 -s 2 -d 3 -p cbr -e 210 -c 0 -i 35 -a 0 -x {1.0 3.1 31 ------- null}
- -t 0.13709 -s 2 -d 3 -p cbr -e 210 -c 0 -i 35 -a 0 -x {1.0 3.1 31 ------- null}
h -t 0.13709 -s 2 -d 3 -p cbr -e 210 -c 0 -i 35 -a 0 -x {1.0 3.1 -1 ------- null}
+ -t 0.13875 -s 1 -d 2 -p cbr -e 210 -c 0 -i 43 -a 0 -x {1.0 3.1 37 ------- null}
- -t 0.13875 -s 1 -d 2 -p cbr -e 210 -c 0 -i 43 -a 0 -x {1.0 3.1 37 ------- null}
h -t 0.13875 -s 1 -d 2 -p cbr -e 210 -c 0 -i 43 -a 0 -x {1.0 3.1 -1 ------- null}
r -t 0.13918 -s 2 -d 3 -p cbr -e 210 -c 0 -i 30 -a 0 -x {1.0 3.1 26 ------- null}
r -t 0.14084 -s 1 -d 2 -p cbr -e 210 -c 0 -i 36 -a 0 -x {1.0 3.1 32 ------- null}
+ -t 0.14084 -s 2 -d 3 -p cbr -e 210 -c 0 -i 36 -a 0 -x {1.0 3.1 32 ------- null}
- -t 0.14084 -s 2 -d 3 -p cbr -e 210 -c 0 -i 36 -a 0 -x {1.0 3.1 32 ------- null}
h -t 0.14084 -s 2 -d 3 -p cbr -e 210 -c 0 -i 36 -a 0 -x {1.0 3.1 -1 ------- null}
+ -t 0.1425 -s 1 -d 2 -p cbr -e 210 -c 0 -i 44 -a 0 -x {1.0 3.1 38 ------- null}
- -t 0.1425 -s 1 -d 2 -p cbr -e 210 -c 0 -i 44 -a 0 -x {1.0 3.1 38 ------- null}
h -t 0.1425 -s 1 -d 2 -p cbr -e 210 -c 0 -i 44 -a 0 -x {1.0 3.1 -1 ------- null}
r -t 0.14293 -s 2 -d 3 -p cbr -e 210 -c 0 -i 31 -a 0 -x {1.0 3.1 27 ------- null}
r -t 0.14459 -s 1 -d 2 -p cbr -e 210 -c 0 -i 37 -a 0 -x {1.0 3.1 33 ------- null}
+ -t 0.14459 -s 2 -d 3 -p cbr -e 210 -c 0 -i 37 -a 0 -x {1.0 3.1 33 ------- null}
- -t 0.14459 -s 2 -d 3 -p cbr -e 210 -c 0 -i 37 -a 0 -x {1.0 3.1 33 ------- null}
h -t 0.14459 -s 2 -d 3 -p cbr -e 210 -c 0 -i 37 -a 0 -x {1.0 3.1 -1 ------- null}
+ -t 0.14625 -s 1 -d 2 -p cbr -e 210 -c 0 -i 45 -a 0 -x {1.0 3.1 39 ------- null}
- -t 0.14625 -s 1 -d 2 -p cbr -e 210 -c 0 -i 45 -a 0 -x {1.0 3.1 39 ------- null}
h -t 0.14625 -s 1 -d 2 -p cbr -e 210 -c 0 -i 45 -a 0 -x {1.0 3.1 -1 ------- null}
r -t 0.14668 -s 2 -d 3 -p cbr -e 210 -c 0 -i 32 -a 0 -x {1.0 3.1 28 ------- null}
r -t 0.14834 -s 1 -d 2 -p cbr -e 210 -c 0 -i 38 -a 0 -x {1.0 3.1 34 ------- null}
+ -t 0.14834 -s 2 -d 3 -p cbr -e 210 -c 0 -i 38 -a 0 -x {1.0 3.1 34 ------- null}
- -t 0.14834 -s 2 -d 3 -p cbr -e 210 -c 0 -i 38 -a 0 -x {1.0 3.1 34 ------- null}
h -t 0.14834 -s 2 -d 3 -p cbr -e 210 -c 0 -i 38 -a 0 -x {1.0 3.1 -1 ------- null}
r -t 0.14912 -s 3 -d 2 -p ack -e 40 -c 0 -i 39 -a 0 -x {3.0 0.0 1 ------- null}
+ -t 0.14912 -s 2 -d 0 -p ack -e 40 -c 0 -i 39 -a 0 -x {3.0 0.0 1 ------- null}
- -t 0.14912 -s 2 -d 0 -p ack -e 40 -c 0 -i 39 -a 0 -x {3.0 0.0 1 ------- null}
h -t 0.14912 -s 2 -d 0 -p ack -e 40 -c 0 -i 39 -a 0 -x {3.0 0.0 -1 ------- null}
+ -t 0.15 -s 1 -d 2 -p cbr -e 210 -c 0 -i 46 -a 0 -x {1.0 3.1 40 ------- null}
- -t 0.15 -s 1 -d 2 -p cbr -e 210 -c 0 -i 46 -a 0 -x {1.0 3.1 40 ------- null}
h -t 0.15 -s 1 -d 2 -p cbr -e 210 -c 0 -i 46 -a 0 -x {1.0 3.1 -1 ------- null}
r -t 0.15043 -s 2 -d 3 -p cbr -e 210 -c 0 -i 33 -a 0 -x {1.0 3.1 29 ------- null}
r -t 0.15209 -s 1 -d 2 -p cbr -e 210 -c 0 -i 40 -a 0 -x {1.0 3.1 35 ------- null}
+ -t 0.15209 -s 2 -d 3 -p cbr -e 210 -c 0 -i 40 -a 0 -x {1.0 3.1 35 ------- null}
- -t 0.15209 -s 2 -d 3 -p cbr -e 210 -c 0 -i 40 -a 0 -x {1.0 3.1 35 ------- null}
h -t 0.15209 -s 2 -d 3 -p cbr -e 210 -c 0 -i 40 -a 0 -x {1.0 3.1 -1 ------- null}
+ -t 0.15375 -s 1 -d 2 -p cbr -e 210 -c 0 -i 47 -a 0 -x {1.0 3.1 41 ------- null}
- -t 0.15375 -s 1 -d 2 -p cbr -e 210 -c 0 -i 47 -a 0 -x {1.0 3.1 41 ------- null}
h -t 0.15375 -s 1 -d 2 -p cbr -e 210 -c 0 -i 47 -a 0 -x {1.0 3.1 -1 ------- null}
r -t 0.15412 -s 3 -d 2 -p ack -e 40 -c 0 -i 41 -a 0 -x {3.0 0.0 2 ------- null}
+ -t 0.15412 -s 2 -d 0 -p ack -e 40 -c 0 -i 41 -a 0 -x {3.0 0.0 2 ------- null}
- -t 0.15412 -s 2 -d 0 -p ack -e 40 -c 0 -i 41 -a 0 -x {3.0 0.0 2 ------- null}
h -t 0.15412 -s 2 -d 0 -p ack -e 40 -c 0 -i 41 -a 0 -x {3.0 0.0 -1 ------- null}
r -t 0.15418 -s 2 -d 3 -p cbr -e 210 -c 0 -i 34 -a 0 -x {1.0 3.1 30 ------- null}
r -t 0.15584 -s 1 -d 2 -p cbr -e 210 -c 0 -i 42 -a 0 -x {1.0 3.1 36 ------- null}
+ -t 0.15584 -s 2 -d 3 -p cbr -e 210 -c 0 -i 42 -a 0 -x {1.0 3.1 36 ------- null}
- -t 0.15584 -s 2 -d 3 -p cbr -e 210 -c 0 -i 42 -a 0 -x {1.0 3.1 36 ------- null}
h -t 0.15584 -s 2 -d 3 -p cbr -e 210 -c 0 -i 42 -a 0 -x {1.0 3.1 -1 ------- null}
+ -t 0.1575 -s 1 -d 2 -p cbr -e 210 -c 0 -i 48 -a 0 -x {1.0 3.1 42 ------- null}
- -t 0.1575 -s 1 -d 2 -p cbr -e 210 -c 0 -i 48 -a 0 -x {1.0 3.1 42 ------- null}
h -t 0.1575 -s 1 -d 2 -p cbr -e 210 -c 0 -i 48 -a 0 -x {1.0 3.1 -1 ------- null}
r -t 0.15793 -s 2 -d 3 -p cbr -e 210 -c 0 -i 35 -a 0 -x {1.0 3.1 31 ------- null}
r -t 0.15959 -s 1 -d 2 -p cbr -e 210 -c 0 -i 43 -a 0 -x {1.0 3.1 37 ------- null}
+ -t 0.15959 -s 2 -d 3 -p cbr -e 210 -c 0 -i 43 -a 0 -x {1.0 3.1 37 ------- null}
- -t 0.15959 -s 2 -d 3 -p cbr -e 210 -c 0 -i 43 -a 0 -x {1.0 3.1 37 ------- null}
h -t 0.15959 -s 2 -d 3 -p cbr -e 210 -c 0 -i 43 -a 0 -x {1.0 3.1 -1 ------- null}
+ -t 0.16125 -s 1 -d 2 -p cbr -e 210 -c 0 -i 49 -a 0 -x {1.0 3.1 43 ------- null}
- -t 0.16125 -s 1 -d 2 -p cbr -e 210 -c 0 -i 49 -a 0 -x {1.0 3.1 43 ------- null}
h -t 0.16125 -s 1 -d 2 -p cbr -e 210 -c 0 -i 49 -a 0 -x {1.0 3.1 -1 ------- null}
r -t 0.16168 -s 2 -d 3 -p cbr -e 210 -c 0 -i 36 -a 0 -x {1.0 3.1 32 ------- null}