+ 0 0 2 tcp 40 ------- 1 0.0 4.0 0 0
- 0 0 2 tcp 40 ------- 1 0.0 4.0 0 0
+ 0 1 2 cbr 210 ------- 2 1.0 6.0 0 1
- 0 1 2 cbr 210 ------- 2 1.0 6.0 0 1
+ 0.00375 1 2 cbr 210 ------- 2 1.0 6.0 1 2
- 0.00375 1 2 cbr 210 ------- 2 1.0 6.0 1 2
+ 0.0075 1 2 cbr 210 ------- 2 1.0 6.0 2 3
- 0.0075 1 2 cbr 210 ------- 2 1.0 6.0 2 3
+ 0.01125 1 2 cbr 210 ------- 2 1.0 6.0 3 4
- 0.01125 1 2 cbr 210 ------- 2 1.0 6.0 3 4
+ 0.015 1 2 cbr 210 ------- 2 1.0 6.0 4 5
- 0.015 1 2 cbr 210 ------- 2 1.0 6.0 4 5
+ 0.01875 1 2 cbr 210 ------- 2 1.0 6.0 5 6
- 0.01875 1 2 cbr 210 ------- 2 1.0 6.0 5 6
r 0.02016 0 2 tcp 40 ------- 1 0.0 4.0 0 0
+ 0.02016 2 3 tcp 40 ------- 1 0.0 4.0 0 0
- 0.02016 2 3 tcp 40 ------- 1 0.0 4.0 0 0
r 0.02084 1 2 cbr 210 ------- 2 1.0 6.0 0 1
+ 0.02084 2 3 cbr 210 ------- 2 1.0 6.0 0 1
- 0.02084 2 3 cbr 210 ------- 2 1.0 6.0 0 1
+ 0.0225 1 2 cbr 210 ------- 2 1.0 6.0 6 7
- 0.0225 1 2 cbr 210 ------- 2 1.0 6.0 6 7
r 0.02459 1 2 cbr 210 ------- 2 1.0 6.0 1 2
+ 0.02459 2 3 cbr 210 ------- 2 1.0 6.0 1 2
- 0.02459 2 3 cbr 210 ------- 2 1.0 6.0 1 2
+ 0.02625 1 2 cbr 210 ------- 2 1.0 6.0 7 8
- 0.02625 1 2 cbr 210 ------- 2 1.0 6.0 7 8
r 0.02834 1 2 cbr 210 ------- 2 1.0 6.0 2 3
+ 0.02834 2 3 cbr 210 ------- 2 1.0 6.0 2 3
- 0.02834 2 3 cbr 210 ------- 2 1.0 6.0 2 3
+ 0.03 1 2 cbr 210 ------- 2 1.0 6.0 8 9
- 0.03 1 2 cbr 210 ------- 2 1.0 6.0 8 9
r 0.03209 1 2 cbr 210 ------- 2 1.0 6.0 3 4
+ 0.03209 2 3 cbr 210 ------- 2 1.0 6.0 3 4
- 0.03209 2 3 cbr 210 ------- 2 1.0 6.0 3 4
+ 0.03375 1 2 cbr 210 ------- 2 1.0 6.0 9 10
- 0.03375 1 2 cbr 210 ------- 2 1.0 6.0 9 10
r 0.03584 1 2 cbr 210 ------- 2 1.0 6.0 4 5
+ 0.03584 2 3 cbr 210 ------- 2 1.0 6.0 4 5
- 0.03584 2 3 cbr 210 ------- 2 1.0 6.0 4 5
+ 0.0375 1 2 cbr 210 ------- 2 1.0 6.0 10 11
- 0.0375 1 2 cbr 210 ------- 2 1.0 6.0 10 11
r 0.03959 1 2 cbr 210 ------- 2 1.0 6.0 5 6
+ 0.03959 2 3 cbr 210 ------- 2 1.0 6.0 5 6
- 0.03959 2 3 cbr 210 ------- 2 1.0 6.0 5 6
r 0.04032 2 3 tcp 40 ------- 1 0.0 4.0 0 0
h 0.04032 3 7 tcp 40 ------- 1 0.0 4.0 0 0
+ 0.04125 1 2 cbr 210 ------- 2 1.0 6.0 11 12
- 0.04125 1 2 cbr 210 ------- 2 1.0 6.0 11 12
r 0.04168 2 3 cbr 210 ------- 2 1.0 6.0 0 1
h 0.04168 3 7 cbr 210 ------- 2 1.0 6.0 0 1
r 0.04334 1 2 cbr 210 ------- 2 1.0 6.0 6 7
+ 0.04334 2 3 cbr 210 ------- 2 1.0 6.0 6 7
- 0.04334 2 3 cbr 210 ------- 2 1.0 6.0 6 7
+ 0.045 1 2 cbr 210 ------- 2 1.0 6.0 12 13
- 0.045 1 2 cbr 210 ------- 2 1.0 6.0 12 13
r 0.04543 2 3 cbr 210 ------- 2 1.0 6.0 1 2
h 0.04543 3 7 cbr 210 ------- 2 1.0 6.0 1 2
r 0.04709 1 2 cbr 210 ------- 2 1.0 6.0 7 8
+ 0.04709 2 3 cbr 210 ------- 2 1.0 6.0 7 8
- 0.04709 2 3 cbr 210 ------- 2 1.0 6.0 7 8
+ 0.04875 1 2 cbr 210 ------- 2 1.0 6.0 13 14
- 0.04875 1 2 cbr 210 ------- 2 1.0 6.0 13 14
r 0.04918 2 3 cbr 210 ------- 2 1.0 6.0 2 3
h 0.04918 3 7 cbr 210 ------- 2 1.0 6.0 2 3
r 0.05084 1 2 cbr 210 ------- 2 1.0 6.0 8 9
+ 0.05084 2 3 cbr 210 ------- 2 1.0 6.0 8 9
- 0.05084 2 3 cbr 210 ------- 2 1.0 6.0 8 9
+ 0.0525 1 2 cbr 210 ------- 2 1.0 6.0 14 15
- 0.0525 1 2 cbr 210 ------- 2 1.0 6.0 14 15
r 0.05293 2 3 cbr 210 ------- 2 1.0 6.0 3 4
h 0.05293 3 7 cbr 210 ------- 2 1.0 6.0 3 4
r 0.05459 1 2 cbr 210 ------- 2 1.0 6.0 9 10
+ 0.05459 2 3 cbr 210 ------- 2 1.0 6.0 9 10
- 0.05459 2 3 cbr 210 ------- 2 1.0 6.0 9 10
+ 0.05625 1 2 cbr 210 ------- 2 1.0 6.0 15 16
- 0.05625 1 2 cbr 210 ------- 2 1.0 6.0 15 16
r 0.05668 2 3 cbr 210 ------- 2 1.0 6.0 4 5
h 0.05668 3 7 cbr 210 ------- 2 1.0 6.0 4 5
r 0.05834 1 2 cbr 210 ------- 2 1.0 6.0 10 11
+ 0.05834 2 3 cbr 210 ------- 2 1.0 6.0 10 11
- 0.05834 2 3 cbr 210 ------- 2 1.0 6.0 10 11
+ 0.06 1 2 cbr 210 ------- 2 1.0 6.0 16 17
- 0.06 1 2 cbr 210 ------- 2 1.0 6.0 16 17
r 0.06043 2 3 cbr 210 ------- 2 1.0 6.0 5 6
h 0.06043 3 7 cbr 210 ------- 2 1.0 6.0 5 6
r 0.06209 1 2 cbr 210 ------- 2 1.0 6.0 11 12
+ 0.06209 2 3 cbr 210 ------- 2 1.0 6.0 11 12
- 0.06209 2 3 cbr 210 ------- 2 1.0 6.0 11 12
+ 0.06375 1 2 cbr 210 ------- 2 1.0 6.0 17 18
- 0.06375 1 2 cbr 210 ------- 2 1.0 6.0 17 18
r 0.06418 2 3 cbr 210 ------- 2 1.0 6.0 6 7
h 0.06418 3 7 cbr 210 ------- 2 1.0 6.0 6 7
r 0.06584 1 2 cbr 210 ------- 2 1.0 6.0 12 13
+ 0.06584 2 3 cbr 210 ------- 2 1.0 6.0 12 13
- 0.06584 2 3 cbr 210 ------- 2 1.0 6.0 12 13
+ 0.0675 1 2 cbr 210 ------- 2 1.0 6.0 18 19
- 0.0675 1 2 cbr 210 ------- 2 1.0 6.0 18 19
r 0.06793 2 3 cbr 210 ------- 2 1.0 6.0 7 8
h 0.06793 3 7 cbr 210 ------- 2 1.0 6.0 7 8
r 0.06959 1 2 cbr 210 ------- 2 1.0 6.0 13 14
+ 0.06959 2 3 cbr 210 ------- 2 1.0 6.0 13 14
- 0.06959 2 3 cbr 210 ------- 2 1.0 6.0 13 14
+ 0.07125 1 2 cbr 210 ------- 2 1.0 6.0 19 20
- 0.07125 1 2 cbr 210 ------- 2 1.0 6.0 19 20
r 0.07168 2 3 cbr 210 ------- 2 1.0 6.0 8 9
h 0.07168 3 7 cbr 210 ------- 2 1.0 6.0 8 9
r 0.07334 1 2 cbr 210 ------- 2 1.0 6.0 14 15
+ 0.07334 2 3 cbr 210 ------- 2 1.0 6.0 14 15
- 0.07334 2 3 cbr 210 ------- 2 1.0 6.0 14 15
+ 0.075 1 2 cbr 210 ------- 2 1.0 6.0 20 21
- 0.075 1 2 cbr 210 ------- 2 1.0 6.0 20 21
r 0.07543 2 3 cbr 210 ------- 2 1.0 6.0 9 10
h 0.07543 3 7 cbr 210 ------- 2 1.0 6.0 9 10
r 0.07709 1 2 cbr 210 ------- 2 1.0 6.0 15 16
+ 0.07709 2 3 cbr 210 ------- 2 1.0 6.0 15 16
- 0.07709 2 3 cbr 210 ------- 2 1.0 6.0 15 16
+ 0.07875 1 2 cbr 210 ------- 2 1.0 6.0 21 22
- 0.07875 1 2 cbr 210 ------- 2 1.0 6.0 21 22
r 0.07918 2 3 cbr 210 ------- 2 1.0 6.0 10 11
h 0.07918 3 7 cbr 210 ------- 2 1.0 6.0 10 11
r 0.08084 1 2 cbr 210 ------- 2 1.0 6.0 16 17
+ 0.08084 2 3 cbr 210 ------- 2 1.0 6.0 16 17
- 0.08084 2 3 cbr 210 ------- 2 1.0 6.0 16 17
+ 0.0825 1 2 cbr 210 ------- 2 1.0 6.0 22 23
- 0.0825 1 2 cbr 210 ------- 2 1.0 6.0 22 23
r 0.08293 2 3 cbr 210 ------- 2 1.0 6.0 11 12
h 0.08293 3 7 cbr 210 ------- 2 1.0 6.0 11 12
r 0.08459 1 2 cbr 210 ------- 2 1.0 6.0 17 18
+ 0.08459 2 3 cbr 210 ------- 2 1.0 6.0 17 18
- 0.08459 2 3 cbr 210 ------- 2 1.0 6.0 17 18
+ 0.08625 1 2 cbr 210 ------- 2 1.0 6.0 23 24
- 0.08625 1 2 cbr 210 ------- 2 1.0 6.0 23 24
r 0.08668 2 3 cbr 210 ------- 2 1.0 6.0 12 13
h 0.08668 3 7 cbr 210 ------- 2 1.0 6.0 12 13
r 0.08834 1 2 cbr 210 ------- 2 1.0 6.0 18 19
+ 0.08834 2 3 cbr 210 ------- 2 1.0 6.0 18 19
- 0.08834 2 3 cbr 210 ------- 2 1.0 6.0 18 19
+ 0.09 1 2 cbr 210 ------- 2 1.0 6.0 24 25
- 0.09 1 2 cbr 210 ------- 2 1.0 6.0 24 25
+ 0.09032 3 7 tcp 40 ------- 1 0.0 4.0 0 0
- 0.09032 3 7 tcp 40 ------- 1 0.0 4.0 0 0
d 0.090324 6 7 tcp 40 ------- 1 0.0 4.0 0 0
d 0.090324 5 7 tcp 40 ------- 1 0.0 4.0 0 0
r 0.09043 2 3 cbr 210 ------- 2 1.0 6.0 13 14
h 0.09043 3 7 cbr 210 ------- 2 1.0 6.0 13 14
+ 0.09168 3 7 cbr 210 ------- 2 1.0 6.0 0 1
- 0.09168 3 7 cbr 210 ------- 2 1.0 6.0 0 1
d 0.091684 5 7 cbr 210 ------- 2 1.0 6.0 0 1
d 0.091684 4 7 cbr 210 ------- 2 1.0 6.0 0 1
r 0.09209 1 2 cbr 210 ------- 2 1.0 6.0 19 20
+ 0.09209 2 3 cbr 210 ------- 2 1.0 6.0 19 20
- 0.09209 2 3 cbr 210 ------- 2 1.0 6.0 19 20
+ 0.09375 1 2 cbr 210 ------- 2 1.0 6.0 25 26
- 0.09375 1 2 cbr 210 ------- 2 1.0 6.0 25 26
r 0.09418 2 3 cbr 210 ------- 2 1.0 6.0 14 15
h 0.09418 3 7 cbr 210 ------- 2 1.0 6.0 14 15
+ 0.09543 3 7 cbr 210 ------- 2 1.0 6.0 1 2
- 0.09543 3 7 cbr 210 ------- 2 1.0 6.0 1 2
d 0.095434 5 7 cbr 210 ------- 2 1.0 6.0 1 2
d 0.095434 4 7 cbr 210 ------- 2 1.0 6.0 1 2
r 0.09584 1 2 cbr 210 ------- 2 1.0 6.0 20 21
+ 0.09584 2 3 cbr 210 ------- 2 1.0 6.0 20 21
- 0.09584 2 3 cbr 210 ------- 2 1.0 6.0 20 21
+ 0.0975 1 2 cbr 210 ------- 2 1.0 6.0 26 27
- 0.0975 1 2 cbr 210 ------- 2 1.0 6.0 26 27
r 0.09793 2 3 cbr 210 ------- 2 1.0 6.0 15 16
h 0.09793 3 7 cbr 210 ------- 2 1.0 6.0 15 16
+ 0.09918 3 7 cbr 210 ------- 2 1.0 6.0 2 3
- 0.09918 3 7 cbr 210 ------- 2 1.0 6.0 2 3
d 0.099184 5 7 cbr 210 ------- 2 1.0 6.0 2 3
d 0.099184 4 7 cbr 210 ------- 2 1.0 6.0 2 3
r 0.09959 1 2 cbr 210 ------- 2 1.0 6.0 21 22
+ 0.09959 2 3 cbr 210 ------- 2 1.0 6.0 21 22
- 0.09959 2 3 cbr 210 ------- 2 1.0 6.0 21 22
+ 0.10125 1 2 cbr 210 ------- 2 1.0 6.0 27 28
- 0.10125 1 2 cbr 210 ------- 2 1.0 6.0 27 28
r 0.10168 2 3 cbr 210 ------- 2 1.0 6.0 16 17
h 0.10168 3 7 cbr 210 ------- 2 1.0 6.0 16 17
+ 0.10293 3 7 cbr 210 ------- 2 1.0 6.0 3 4
- 0.10293 3 7 cbr 210 ------- 2 1.0 6.0 3 4
d 0.102934 5 7 cbr 210 ------- 2 1.0 6.0 3 4
d 0.102934 4 7 cbr 210 ------- 2 1.0 6.0 3 4
r 0.10334 1 2 cbr 210 ------- 2 1.0 6.0 22 23
+ 0.10334 2 3 cbr 210 ------- 2 1.0 6.0 22 23
- 0.10334 2 3 cbr 210 ------- 2 1.0 6.0 22 23
+ 0.105 1 2 cbr 210 ------- 2 1.0 6.0 28 29
- 0.105 1 2 cbr 210 ------- 2 1.0 6.0 28 29
r 0.10543 2 3 cbr 210 ------- 2 1.0 6.0 17 18
h 0.10543 3 7 cbr 210 ------- 2 1.0 6.0 17 18
+ 0.10668 3 7 cbr 210 ------- 2 1.0 6.0 4 5
- 0.10668 3 7 cbr 210 ------- 2 1.0 6.0 4 5
d 0.106684 5 7 cbr 210 ------- 2 1.0 6.0 4 5
d 0.106684 4 7 cbr 210 ------- 2 1.0 6.0 4 5
r 0.10709 1 2 cbr 210 ------- 2 1.0 6.0 23 24
+ 0.10709 2 3 cbr 210 ------- 2 1.0 6.0 23 24
- 0.10709 2 3 cbr 210 ------- 2 1.0 6.0 23 24
+ 0.10875 1 2 cbr 210 ------- 2 1.0 6.0 29 30
- 0.10875 1 2 cbr 210 ------- 2 1.0 6.0 29 30
r 0.10918 2 3 cbr 210 ------- 2 1.0 6.0 18 19
h 0.10918 3 7 cbr 210 ------- 2 1.0 6.0 18 19
+ 0.11043 3 7 cbr 210 ------- 2 1.0 6.0 5 6
- 0.11043 3 7 cbr 210 ------- 2 1.0 6.0 5 6
d 0.110434 5 7 cbr 210 ------- 2 1.0 6.0 5 6
d 0.110434 4 7 cbr 210 ------- 2 1.0 6.0 5 6
r 0.11084 1 2 cbr 210 ------- 2 1.0 6.0 24 25
+ 0.11084 2 3 cbr 210 ------- 2 1.0 6.0 24 25
- 0.11084 2 3 cbr 210 ------- 2 1.0 6.0 24 25
+ 0.1125 1 2 cbr 210 ------- 2 1.0 6.0 30 31
- 0.1125 1 2 cbr 210 ------- 2 1.0 6.0 30 31
r 0.11293 2 3 cbr 210 ------- 2 1.0 6.0 19 20
h 0.11293 3 7 cbr 210 ------- 2 1.0 6.0 19 20
+ 0.11418 3 7 cbr 210 ------- 2 1.0 6.0 6 7
- 0.11418 3 7 cbr 210 ------- 2 1.0 6.0 6 7
d 0.114184 5 7 cbr 210 ------- 2 1.0 6.0 6 7
d 0.114184 4 7 cbr 210 ------- 2 1.0 6.0 6 7
r 0.11459 1 2 cbr 210 ------- 2 1.0 6.0 25 26
+ 0.11459 2 3 cbr 210 ------- 2 1.0 6.0 25 26
- 0.11459 2 3 cbr 210 ------- 2 1.0 6.0 25 26
+ 0.11625 1 2 cbr 210 ------- 2 1.0 6.0 31 32
- 0.11625 1 2 cbr 210 ------- 2 1.0 6.0 31 32
r 0.11668 2 3 cbr 210 ------- 2 1.0 6.0 20 21
h 0.11668 3 7 cbr 210 ------- 2 1.0 6.0 20 21
+ 0.11793 3 7 cbr 210 ------- 2 1.0 6.0 7 8
- 0.11793 3 7 cbr 210 ------- 2 1.0 6.0 7 8
d 0.117934 5 7 cbr 210 ------- 2 1.0 6.0 7 8
d 0.117934 4 7 cbr 210 ------- 2 1.0 6.0 7 8
r 0.11834 1 2 cbr 210 ------- 2 1.0 6.0 26 27
+ 0.11834 2 3 cbr 210 ------- 2 1.0 6.0 26 27
- 0.11834 2 3 cbr 210 ------- 2 1.0 6.0 26 27
+ 0.12 1 2 cbr 210 ------- 2 1.0 6.0 32 33
- 0.12 1 2 cbr 210 ------- 2 1.0 6.0 32 33
r 0.12043 2 3 cbr 210 ------- 2 1.0 6.0 21 22
h 0.12043 3 7 cbr 210 ------- 2 1.0 6.0 21 22
+ 0.12168 3 7 cbr 210 ------- 2 1.0 6.0 8 9
- 0.12168 3 7 cbr 210 ------- 2 1.0 6.0 8 9
d 0.121684 5 7 cbr 210 ------- 2 1.0 6.0 8 9
d 0.121684 4 7 cbr 210 ------- 2 1.0 6.0 8 9
r 0.12209 1 2 cbr 210 ------- 2 1.0 6.0 27 28
+ 0.12209 2 3 cbr 210 ------- 2 1.0 6.0 27 28
- 0.12209 2 3 cbr 210 ------- 2 1.0 6.0 27 28
+ 0.12375 1 2 cbr 210 ------- 2 1.0 6.0 33 34
- 0.12375 1 2 cbr 210 ------- 2 1.0 6.0 33 34
r 0.12418 2 3 cbr 210 ------- 2 1.0 6.0 22 23
h 0.12418 3 7 cbr 210 ------- 2 1.0 6.0 22 23
+ 0.12543 3 7 cbr 210 ------- 2 1.0 6.0 9 10
- 0.12543 3 7 cbr 210 ------- 2 1.0 6.0 9 10
d 0.125434 5 7 cbr 210 ------- 2 1.0 6.0 9 10
d 0.125434 4 7 cbr 210 ------- 2 1.0 6.0 9 10
r 0.12584 1 2 cbr 210 ------- 2 1.0 6.0 28 29
+ 0.12584 2 3 cbr 210 ------- 2 1.0 6.0 28 29
- 0.12584 2 3 cbr 210 ------- 2 1.0 6.0 28 29
+ 0.1275 1 2 cbr 210 ------- 2 1.0 6.0 34 35
- 0.1275 1 2 cbr 210 ------- 2 1.0 6.0 34 35
r 0.12793 2 3 cbr 210 ------- 2 1.0 6.0 23 24
h 0.12793 3 7 cbr 210 ------- 2 1.0 6.0 23 24
+ 0.12918 3 7 cbr 210 ------- 2 1.0 6.0 10 11
- 0.12918 3 7 cbr 210 ------- 2 1.0 6.0 10 11
d 0.129184 5 7 cbr 210 ------- 2 1.0 6.0 10 11
d 0.129184 4 7 cbr 210 ------- 2 1.0 6.0 10 11
r 0.12959 1 2 cbr 210 ------- 2 1.0 6.0 29 30
+ 0.12959 2 3 cbr 210 ------- 2 1.0 6.0 29 30
- 0.12959 2 3 cbr 210 ------- 2 1.0 6.0 29 30
+ 0.13125 1 2 cbr 210 ------- 2 1.0 6.0 35 36
- 0.13125 1 2 cbr 210 ------- 2 1.0 6.0 35 36
r 0.13168 2 3 cbr 210 ------- 2 1.0 6.0 24 25
h 0.13168 3 7 cbr 210 ------- 2 1.0 6.0 24 25
+ 0.13293 3 7 cbr 210 ------- 2 1.0 6.0 11 12
- 0.13293 3 7 cbr 210 ------- 2 1.0 6.0 11 12
d 0.132934 5 7 cbr 210 ------- 2 1.0 6.0 11 12
d 0.132934 4 7 cbr 210 ------- 2 1.0 6.0 11 12
r 0.13334 1 2 cbr 210 ------- 2 1.0 6.0 30 31
+ 0.13334 2 3 cbr 210 ------- 2 1.0 6.0 30 31
- 0.13334 2 3 cbr 210 ------- 2 1.0 6.0 30 31
+ 0.135 1 2 cbr 210 ------- 2 1.0 6.0 36 37
- 0.135 1 2 cbr 210 ------- 2 1.0 6.0 36 37
r 0.13543 2 3 cbr 210 ------- 2 1.0 6.0 25 26
h 0.13543 3 7 cbr 210 ------- 2 1.0 6.0 25 26
+ 0.13668 3 7 cbr 210 ------- 2 1.0 6.0 12 13
- 0.13668 3 7 cbr 210 ------- 2 1.0 6.0 12 13
d 0.136684 5 7 cbr 210 ------- 2 1.0 6.0 12 13
d 0.136684 4 7 cbr 210 ------- 2 1.0 6.0 12 13
r 0.13709 1 2 cbr 210 ------- 2 1.0 6.0 31 32
+ 0.13709 2 3 cbr 210 ------- 2 1.0 6.0 31 32
- 0.13709 2 3 cbr 210 ------- 2 1.0 6.0 31 32
+ 0.13875 1 2 cbr 210 ------- 2 1.0 6.0 37 38
- 0.13875 1 2 cbr 210 ------- 2 1.0 6.0 37 38
r 0.13918 2 3 cbr 210 ------- 2 1.0 6.0 26 27
h 0.13918 3 7 cbr 210 ------- 2 1.0 6.0 26 27
r 0.140324 7 4 tcp 40 ------- 1 0.0 4.0 0 0
h 0.140324 4 7 ack 40 ------- 1 4.0 0.0 0 39
+ 0.14043 3 7 cbr 210 ------- 2 1.0 6.0 13 14
- 0.14043 3 7 cbr 210 ------- 2 1.0 6.0 13 14
d 0.140434 5 7 cbr 210 ------- 2 1.0 6.0 13 14
d 0.140434 4 7 cbr 210 ------- 2 1.0 6.0 13 14
r 0.14084 1 2 cbr 210 ------- 2 1.0 6.0 32 33
+ 0.14084 2 3 cbr 210 ------- 2 1.0 6.0 32 33
- 0.14084 2 3 cbr 210 ------- 2 1.0 6.0 32 33
r 0.141684 7 6 cbr 210 ------- 2 1.0 6.0 0 1
+ 0.1425 1 2 cbr 210 ------- 2 1.0 6.0 38 40
- 0.1425 1 2 cbr 210 ------- 2 1.0 6.0 38 40
r 0.14293 2 3 cbr 210 ------- 2 1.0 6.0 27 28
h 0.14293 3 7 cbr 210 ------- 2 1.0 6.0 27 28
+ 0.14418 3 7 cbr 210 ------- 2 1.0 6.0 14 15
- 0.14418 3 7 cbr 210 ------- 2 1.0 6.0 14 15
d 0.144184 5 7 cbr 210 ------- 2 1.0 6.0 14 15
d 0.144184 4 7 cbr 210 ------- 2 1.0 6.0 14 15
r 0.14459 1 2 cbr 210 ------- 2 1.0 6.0 33 34
+ 0.14459 2 3 cbr 210 ------- 2 1.0 6.0 33 34
- 0.14459 2 3 cbr 210 ------- 2 1.0 6.0 33 34
r 0.145434 7 6 cbr 210 ------- 2 1.0 6.0 1 2
+ 0.14625 1 2 cbr 210 ------- 2 1.0 6.0 39 41
- 0.14625 1 2 cbr 210 ------- 2 1.0 6.0 39 41
r 0.14668 2 3 cbr 210 ------- 2 1.0 6.0 28 29
h 0.14668 3 7 cbr 210 ------- 2 1.0 6.0 28 29
+ 0.14793 3 7 cbr 210 ------- 2 1.0 6.0 15 16
- 0.14793 3 7 cbr 210 ------- 2 1.0 6.0 15 16
d 0.147934 5 7 cbr 210 ------- 2 1.0 6.0 15 16
d 0.147934 4 7 cbr 210 ------- 2 1.0 6.0 15 16
r 0.14834 1 2 cbr 210 ------- 2 1.0 6.0 34 35
+ 0.14834 2 3 cbr 210 ------- 2 1.0 6.0 34 35
- 0.14834 2 3 cbr 210 ------- 2 1.0 6.0 34 35
r 0.149184 7 6 cbr 210 ------- 2 1.0 6.0 2 3
+ 0.15 1 2 cbr 210 ------- 2 1.0 6.0 40 42
- 0.15 1 2 cbr 210 ------- 2 1.0 6.0 40 42
r 0.15043 2 3 cbr 210 ------- 2 1.0 6.0 29 30
h 0.15043 3 7 cbr 210 ------- 2 1.0 6.0 29 30
+ 0.15168 3 7 cbr 210 ------- 2 1.0 6.0 16 17
- 0.15168 3 7 cbr 210 ------- 2 1.0 6.0 16 17
d 0.151684 5 7 cbr 210 ------- 2 1.0 6.0 16 17
d 0.151684 4 7 cbr 210 ------- 2 1.0 6.0 16 17
r 0.15209 1 2 cbr 210 ------- 2 1.0 6.0 35 36
+ 0.15209 2 3 cbr 210 ------- 2 1.0 6.0 35 36
- 0.15209 2 3 cbr 210 ------- 2 1.0 6.0 35 36
r 0.152934 7 6 cbr 210 ------- 2 1.0 6.0 3 4
+ 0.15375 1 2 cbr 210 ------- 2 1.0 6.0 41 43
- 0.15375 1 2 cbr 210 ------- 2 1.0 6.0 41 43
r 0.15418 2 3 cbr 210 ------- 2 1.0 6.0 30 31
h 0.15418 3 7 cbr 210 ------- 2 1.0 6.0 30 31
+ 0.15543 3 7 cbr 210 ------- 2 1.0 6.0 17 18
- 0.15543 3 7 cbr 210 ------- 2 1.0 6.0 17 18
d 0.155434 5 7 cbr 210 ------- 2 1.0 6.0 17 18
d 0.155434 4 7 cbr 210 ------- 2 1.0 6.0 17 18
r 0.15584 1 2 cbr 210 ------- 2 1.0 6.0 36 37
+ 0.15584 2 3 cbr 210 ------- 2 1.0 6.0 36 37
- 0.15584 2 3 cbr 210 ------- 2 1.0 6.0 36 37
r 0.156684 7 6 cbr 210 ------- 2 1.0 6.0 4 5
+ 0.1575 1 2 cbr 210 ------- 2 1.0 6.0 42 44
- 0.1575 1 2 cbr 210 ------- 2 1.0 6.0 42 44
r 0.15793 2 3 cbr 210 ------- 2 1.0 6.0 31 32
h 0.15793 3 7 cbr 210 ------- 2 1.0 6.0 31 32
+ 0.15918 3 7 cbr 210 ------- 2 1.0 6.0 18 19
- 0.15918 3 7 cbr 210 ------- 2 1.0 6.0 18 19
d 0.159184 5 7 cbr 210 ------- 2 1.0 6.0 18 19
d 0.159184 4 7 cbr 210 ------- 2 1.0 6.0 18 19
r 0.15959 1 2 cbr 210 ------- 2 1.0 6.0 37 38
+ 0.15959 2 3 cbr 210 ------- 2 1.0 6.0 37 38
- 0.15959 2 3 cbr 210 ------- 2 1.0 6.0 37 38
r 0.160434 7 6 cbr 210 ------- 2 1.0 6.0 5 6
+ 0.16125 1 2 cbr 210 ------- 2 1.0 6.0 43 45
- 0.16125 1 2 cbr 210 ------- 2 1.0 6.0 43 45
r 0.16168 2 3 cbr 210 ------- 2 1.0 6.0 32 33
h 0.16168 3 7 cbr 210 ------- 2 1.0 6.0 32 33
+ 0.16293 3 7 cbr 210 ------- 2 1.0 6.0 19 20
- 0.16293 3 7 cbr 210 ------- 2 1.0 6.0 19 20
d 0.162934 5 7 cbr 210 ------- 2 1.0 6.0 19 20
d 0.162934 4 7 cbr 210 ------- 2 1.0 6.0 19 20
r 0.16334 1 2 cbr 210 ------- 2 1.0 6.0 38 40
+ 0.16334 2 3 cbr 210 ------- 2 1.0 6.0 38 40
- 0.16334 2 3 cbr 210 ------- 2 1.0 6.0 38 40
r 0.164184 7 6 cbr 210 ------- 2 1.0 6.0 6 7
+ 0.165 1 2 cbr 210 ------- 2 1.0 6.0 44 46
- 0.165 1 2 cbr 210 ------- 2 1.0 6.0 44 46
r 0.16543 2 3 cbr 210 ------- 2 1.0 6.0 33 34
h 0.16543 3 7 cbr 210 ------- 2 1.0 6.0 33 34
+ 0.16668 3 7 cbr 210 ------- 2 1.0 6.0 20 21
- 0.16668 3 7 cbr 210 ------- 2 1.0 6.0 20 21
d 0.166684 5 7 cbr 210 ------- 2 1.0 6.0 20 21
d 0.166684 4 7 cbr 210 ------- 2 1.0 6.0 20 21
r 0.16709 1 2 cbr 210 ------- 2 1.0 6.0 39 41
+ 0.16709 2 3 cbr 210 ------- 2 1.0 6.0 39 41
- 0.16709 2 3 cbr 210 ------- 2 1.0 6.0 39 41
r 0.167934 7 6 cbr 210 ------- 2 1.0 6.0 7 8
+ 0.16875 1 2 cbr 210 ------- 2 1.0 6.0 45 47
- 0.16875 1 2 cbr 210 ------- 2 1.0 6.0 45 47
r 0.16918 2 3 cbr 210 ------- 2 1.0 6.0 34 35
h 0.16918 3 7 cbr 210 ------- 2 1.0 6.0 34 35
+ 0.17043 3 7 cbr 210 ------- 2 1.0 6.0 21 22
- 0.17043 3 7 cbr 210 ------- 2 1.0 6.0 21 22
d 0.170434 5 7 cbr 210 ------- 2 1.0 6.0 21 22
d 0.170434 4 7 cbr 210 ------- 2 1.0 6.0 21 22
r 0.17084 1 2 cbr 210 ------- 2 1.0 6.0 40 42
+ 0.17084 2 3 cbr 210 ------- 2 1.0 6.0 40 42
- 0.17084 2 3 cbr 210 ------- 2 1.0 6.0 40 42
r 0.171684 7 6 cbr 210 ------- 2 1.0 6.0 8 9
+ 0.1725 1 2 cbr 210 ------- 2 1.0 6.0 46 48
- 0.1725 1 2 cbr 210 ------- 2 1.0 6.0 46 48
r 0.17293 2 3 cbr 210 ------- 2 1.0 6.0 35 36
h 0.17293 3 7 cbr 210 ------- 2 1.0 6.0 35 36
+ 0.17418 3 7 cbr 210 ------- 2 1.0 6.0 22 23
- 0.17418 3 7 cbr 210 ------- 2 1.0 6.0 22 23
d 0.174184 5 7 cbr 210 ------- 2 1.0 6.0 22 23
d 0.174184 4 7 cbr 210 ------- 2 1.0 6.0 22 23
r 0.17459 1 2 cbr 210 ------- 2 1.0 6.0 41 43
+ 0.17459 2 3 cbr 210 ------- 2 1.0 6.0 41 43
- 0.17459 2 3 cbr 210 ------- 2 1.0 6.0 41 43
r 0.175434 7 6 cbr 210 ------- 2 1.0 6.0 9 10
+ 0.17625 1 2 cbr 210 ------- 2 1.0 6.0 47 49
- 0.17625 1 2 cbr 210 ------- 2 1.0 6.0 47 49
r 0.17668 2 3 cbr 210 ------- 2 1.0 6.0 36 37
h 0.17668 3 7 cbr 210 ------- 2 1.0 6.0 36 37
+ 0.17793 3 7 cbr 210 ------- 2 1.0 6.0 23 24
- 0.17793 3 7 cbr 210 ------- 2 1.0 6.0 23 24
d 0.177934 5 7 cbr 210 ------- 2 1.0 6.0 23 24
d 0.177934 4 7 cbr 210 ------- 2 1.0 6.0 23 24
r 0.17834 1 2 cbr 210 ------- 2 1.0 6.0 42 44
+ 0.17834 2 3 cbr 210 ------- 2 1.0 6.0 42 44
- 0.17834 2 3 cbr 210 ------- 2 1.0 6.0 42 44
r 0.179184 7 6 cbr 210 ------- 2 1.0 6.0 10 11
+ 0.18 1 2 cbr 210 ------- 2 1.0 6.0 48 50
- 0.18 1 2 cbr 210 ------- 2 1.0 6.0 48 50
r 0.18043 2 3 cbr 210 ------- 2 1.0 6.0 37 38
h 0.18043 3 7 cbr 210 ------- 2 1.0 6.0 37 38
+ 0.18168 3 7 cbr 210 ------- 2 1.0 6.0 24 25
- 0.18168 3 7 cbr 210 ------- 2 1.0 6.0 24 25
d 0.181684 5 7 cbr 210 ------- 2 1.0 6.0 24 25
d 0.181684 4 7 cbr 210 ------- 2 1.0 6.0 24 25
r 0.18209 1 2 cbr 210 ------- 2 1.0 6.0 43 45
+ 0.18209 2 3 cbr 210 ------- 2 1.0 6.0 43 45
- 0.18209 2 3 cbr 210 ------- 2 1.0 6.0 43 45
r 0.182934 7 6 cbr 210 ------- 2 1.0 6.0 11 12
+ 0.18375 1 2 cbr 210 ------- 2 1.0 6.0 49 51
- 0.18375 1 2 cbr 210 ------- 2 1.0 6.0 49 51
r 0.18418 2 3 cbr 210 ------- 2 1.0 6.0 38 40
h 0.18418 3 7 cbr 210 ------- 2 1.0 6.0 38 40
+ 0.18543 3 7 cbr 210 ------- 2 1.0 6.0 25 26
- 0.18543 3 7 cbr 210 ------- 2 1.0 6.0 25 26
d 0.185434 5 7 cbr 210 ------- 2 1.0 6.0 25 26
d 0.185434 4 7 cbr 210 ------- 2 1.0 6.0 25 26
r 0.18584 1 2 cbr 210 ------- 2 1.0 6.0 44 46
+ 0.18584 2 3 cbr 210 ------- 2 1.0 6.0 44 46
- 0.18584 2 3 cbr 210 ------- 2 1.0 6.0 44 46
r 0.186684 7 6 cbr 210 ------- 2 1.0 6.0 12 13
+ 0.1875 1 2 cbr 210 ------- 2 1.0 6.0 50 52
- 0.1875 1 2 cbr 210 ------- 2 1.0 6.0 50 52
r 0.18793 2 3 cbr 210 ------- 2 1.0 6.0 39 41
h 0.18793 3 7 cbr 210 ------- 2 1.0 6.0 39 41
+ 0.18918 3 7 cbr 210 ------- 2 1.0 6.0 26 27
- 0.18918 3 7 cbr 210 ------- 2 1.0 6.0 26 27
d 0.189184 5 7 cbr 210 ------- 2 1.0 6.0 26 27
d 0.189184 4 7 cbr 210 ------- 2 1.0 6.0 26 27
r 0.18959 1 2 cbr 210 ------- 2 1.0 6.0 45 47
+ 0.18959 2 3 cbr 210 ------- 2 1.0 6.0 45 47
- 0.18959 2 3 cbr 210 ------- 2 1.0 6.0 45 47
+ 0.190324 4 7 ack 40 ------- 1 4.0 0.0 0 39
- 0.190324 4 7 ack 40 ------- 1 4.0 0.0 0 39
d 0.190328 6 7 ack 40 ------- 1 4.0 0.0 0 39
d 0.190328 5 7 ack 40 ------- 1 4.0 0.0 0 39
r 0.190434 7 6 cbr 210 ------- 2 1.0 6.0 13 14
+ 0.19125 1 2 cbr 210 ------- 2 1.0 6.0 51 53
- 0.19125 1 2 cbr 210 ------- 2 1.0 6.0 51 53
r 0.19168 2 3 cbr 210 ------- 2 1.0 6.0 40 42
h 0.19168 3 7 cbr 210 ------- 2 1.0 6.0 40 42
+ 0.19293 3 7 cbr 210 ------- 2 1.0 6.0 27 28
- 0.19293 3 7 cbr 210 ------- 2 1.0 6.0 27 28
d 0.192934 5 7 cbr 210 ------- 2 1.0 6.0 27 28
d 0.192934 4 7 cbr 210 ------- 2 1.0 6.0 27 28
r 0.19334 1 2 cbr 210 ------- 2 1.0 6.0 46 48
+ 0.19334 2 3 cbr 210 ------- 2 1.0 6.0 46 48
- 0.19334 2 3 cbr 210 ------- 2 1.0 6.0 46 48
r 0.194184 7 6 cbr 210 ------- 2 1.0 6.0 14 15
+ 0.195 1 2 cbr 210 ------- 2 1.0 6.0 52 54
- 0.195 1 2 cbr 210 ------- 2 1.0 6.0 52 54
r 0.19543 2 3 cbr 210 ------- 2 1.0 6.0 41 43
h 0.19543 3 7 cbr 210 ------- 2 1.0 6.0 41 43
+ 0.19668 3 7 cbr 210 ------- 2 1.0 6.0 28 29
- 0.19668 3 7 cbr 210 ------- 2 1.0 6.0 28 29
d 0.196684 5 7 cbr 210 ------- 2 1.0 6.0 28 29
d 0.196684 4 7 cbr 210 ------- 2 1.0 6.0 28 29
r 0.19709 1 2 cbr 210 ------- 2 1.0 6.0 47 49
+ 0.19709 2 3 cbr 210 ------- 2 1.0 6.0 47 49
- 0.19709 2 3 cbr 210 ------- 2 1.0 6.0 47 49
r 0.197934 7 6 cbr 210 ------- 2 1.0 6.0 15 16
+ 0.19875 1 2 cbr 210 ------- 2 1.0 6.0 53 55
- 0.19875 1 2 cbr 210 ------- 2 1.0 6.0 53 55
r 0.19918 2 3 cbr 210 ------- 2 1.0 6.0 42 44
h 0.19918 3 7 cbr 210 ------- 2 1.0 6.0 42 44
+ 0.20043 3 7 cbr 210 ------- 2 1.0 6.0 29 30
- 0.20043 3 7 cbr 210 ------- 2 1.0 6.0 29 30
d 0.200434 5 7 cbr 210 ------- 2 1.0 6.0 29 30
d 0.200434 4 7 cbr 210 ------- 2 1.0 6.0 29 30
r 0.20084 1 2 cbr 210 ------- 2 1.0 6.0 48 50
+ 0.20084 2 3 cbr 210 ------- 2 1.0 6.0 48 50
- 0.20084 2 3 cbr 210 ------- 2 1.0 6.0 48 50
r 0.201684 7 6 cbr 210 ------- 2 1.0 6.0 16 17
+ 0.2025 1 2 cbr 210 ------- 2 1.0 6.0 54 56
- 0.2025 1 2 cbr 210 ------- 2 1.0 6.0 54 56
r 0.20293 2 3 cbr 210 ------- 2 1.0 6.0 43 45
h 0.20293 3 7 cbr 210 ------- 2 1.0 6.0 43 45
+ 0.20418 3 7 cbr 210 ------- 2 1.0 6.0 30 31
- 0.20418 3 7 cbr 210 ------- 2 1.0 6.0 30 31
d 0.204184 5 7 cbr 210 ------- 2 1.0 6.0 30 31
d 0.204184 4 7 cbr 210 ------- 2 1.0 6.0 30 31
r 0.20459 1 2 cbr 210 ------- 2 1.0 6.0 49 51
+ 0.20459 2 3 cbr 210 ------- 2 1.0 6.0 49 51
- 0.20459 2 3 cbr 210 ------- 2 1.0 6.0 49 51
r 0.205434 7 6 cbr 210 ------- 2 1.0 6.0 17 18
+ 0.20625 1 2 cbr 210 ------- 2 1.0 6.0 55 57
- 0.20625 1 2 cbr 210 ------- 2 1.0 6.0 55 57
r 0.20668 2 3 cbr 210 ------- 2 1.0 6.0 44 46
h 0.20668 3 7 cbr 210 ------- 2 1.0 6.0 44 46
+ 0.20793 3 7 cbr 210 ------- 2 1.0 6.0 31 32
- 0.20793 3 7 cbr 210 ------- 2 1.0 6.0 31 32
d 0.207934 5 7 cbr 210 ------- 2 1.0 6.0 31 32
d 0.207934 4 7 cbr 210 ------- 2 1.0 6.0 31 32
r 0.20834 1 2 cbr 210 ------- 2 1.0 6.0 50 52
+ 0.20834 2 3 cbr 210 ------- 2 1.0 6.0 50 52
- 0.20834 2 3 cbr 210 ------- 2 1.0 6.0 50 52
r 0.209184 7 6 cbr 210 ------- 2 1.0 6.0 18 19
+ 0.21 1 2 cbr 210 ------- 2 1.0 6.0 56 58
- 0.21 1 2 cbr 210 ------- 2 1.0 6.0 56 58
r 0.21043 2 3 cbr 210 ------- 2 1.0 6.0 45 47
h 0.21043 3 7 cbr 210 ------- 2 1.0 6.0 45 47
+ 0.21168 3 7 cbr 210 ------- 2 1.0 6.0 32 33
- 0.21168 3 7 cbr 210 ------- 2 1.0 6.0 32 33
d 0.211684 5 7 cbr 210 ------- 2 1.0 6.0 32 33
d 0.211684 4 7 cbr 210 ------- 2 1.0 6.0 32 33
r 0.21209 1 2 cbr 210 ------- 2 1.0 6.0 51 53
+ 0.21209 2 3 cbr 210 ------- 2 1.0 6.0 51 53
- 0.21209 2 3 cbr 210 ------- 2 1.0 6.0 51 53
r 0.212934 7 6 cbr 210 ------- 2 1.0 6.0 19 20
+ 0.21375 1 2 cbr 210 ------- 2 1.0 6.0 57 59
- 0.21375 1 2 cbr 210 ------- 2 1.0 6.0 57 59
r 0.21418 2 3 cbr 210 ------- 2 1.0 6.0 46 48
h 0.21418 3 7 cbr 210 ------- 2 1.0 6.0 46 48
+ 0.21543 3 7 cbr 210 ------- 2 1.0 6.0 33 34
- 0.21543 3 7 cbr 210 ------- 2 1.0 6.0 33 34
d 0.215434 5 7 cbr 210 ------- 2 1.0 6.0 33 34
d 0.215434 4 7 cbr 210 ------- 2 1.0 6.0 33 34
r 0.21584 1 2 cbr 210 ------- 2 1.0 6.0 52 54
+ 0.21584 2 3 cbr 210 ------- 2 1.0 6.0 52 54
- 0.21584 2 3 cbr 210 ------- 2 1.0 6.0 52 54
r 0.216684 7 6 cbr 210 ------- 2 1.0 6.0 20 21
+ 0.2175 1 2 cbr 210 ------- 2 1.0 6.0 58 60
- 0.2175 1 2 cbr 210 ------- 2 1.0 6.0 58 60
r 0.21793 2 3 cbr 210 ------- 2 1.0 6.0 47 49
h 0.21793 3 7 cbr 210 ------- 2 1.0 6.0 47 49
+ 0.21918 3 7 cbr 210 ------- 2 1.0 6.0 34 35
- 0.21918 3 7 cbr 210 ------- 2 1.0 6.0 34 35
d 0.219184 5 7 cbr 210 ------- 2 1.0 6.0 34 35
d 0.219184 4 7 cbr 210 ------- 2 1.0 6.0 34 35
r 0.21959 1 2 cbr 210 ------- 2 1.0 6.0 53 55
+ 0.21959 2 3 cbr 210 ------- 2 1.0 6.0 53 55
- 0.21959 2 3 cbr 210 ------- 2 1.0 6.0 53 55
r 0.220434 7 6 cbr 210 ------- 2 1.0 6.0 21 22
+ 0.22125 1 2 cbr 210 ------- 2 1.0 6.0 59 61
- 0.22125 1 2 cbr 210 ------- 2 1.0 6.0 59 61
r 0.22168 2 3 cbr 210 ------- 2 1.0 6.0 48 50
h 0.22168 3 7 cbr 210 ------- 2 1.0 6.0 48 50
+ 0.22293 3 7 cbr 210 ------- 2 1.0 6.0 35 36
- 0.22293 3 7 cbr 210 ------- 2 1.0 6.0 35 36
d 0.222934 5 7 cbr 210 ------- 2 1.0 6.0 35 36
d 0.222934 4 7 cbr 210 ------- 2 1.0 6.0 35 36
r 0.22334 1 2 cbr 210 ------- 2 1.0 6.0 54 56
+ 0.22334 2 3 cbr 210 ------- 2 1.0 6.0 54 56
- 0.22334 2 3 cbr 210 ------- 2 1.0 6.0 54 56
r 0.224184 7 6 cbr 210 ------- 2 1.0 6.0 22 23
+ 0.225 1 2 cbr 210 ------- 2 1.0 6.0 60 62
- 0.225 1 2 cbr 210 ------- 2 1.0 6.0 60 62
r 0.22543 2 3 cbr 210 ------- 2 1.0 6.0 49 51
h 0.22543 3 7 cbr 210 ------- 2 1.0 6.0 49 51
+ 0.22668 3 7 cbr 210 ------- 2 1.0 6.0 36 37
- 0.22668 3 7 cbr 210 ------- 2 1.0 6.0 36 37
d 0.226684 5 7 cbr 210 ------- 2 1.0 6.0 36 37
d 0.226684 4 7 cbr 210 ------- 2 1.0 6.0 36 37
r 0.22709 1 2 cbr 210 ------- 2 1.0 6.0 55 57
+ 0.22709 2 3 cbr 210 ------- 2 1.0 6.0 55 57
- 0.22709 2 3 cbr 210 ------- 2 1.0 6.0 55 57
r 0.227934 7 6 cbr 210 ------- 2 1.0 6.0 23 24
+ 0.22875 1 2 cbr 210 ------- 2 1.0 6.0 61 63
- 0.22875 1 2 cbr 210 ------- 2 1.0 6.0 61 63
r 0.22918 2 3 cbr 210 ------- 2 1.0 6.0 50 52
h 0.22918 3 7 cbr 210 ------- 2 1.0 6.0 50 52
+ 0.23043 3 7 cbr 210 ------- 2 1.0 6.0 37 38
- 0.23043 3 7 cbr 210 ------- 2 1.0 6.0 37 38
d 0.230434 5 7 cbr 210 ------- 2 1.0 6.0 37 38
d 0.230434 4 7 cbr 210 ------- 2 1.0 6.0 37 38
r 0.23084 1 2 cbr 210 ------- 2 1.0 6.0 56 58
+ 0.23084 2 3 cbr 210 ------- 2 1.0 6.0 56 58
- 0.23084 2 3 cbr 210 ------- 2 1.0 6.0 56 58
r 0.231684 7 6 cbr 210 ------- 2 1.0 6.0 24 25
+ 0.2325 1 2 cbr 210 ------- 2 1.0 6.0 62 64
- 0.2325 1 2 cbr 210 ------- 2 1.0 6.0 62 64
r 0.23293 2 3 cbr 210 ------- 2 1.0 6.0 51 53
h 0.23293 3 7 cbr 210 ------- 2 1.0 6.0 51 53
+ 0.23418 3 7 cbr 210 ------- 2 1.0 6.0 38 40
- 0.23418 3 7 cbr 210 ------- 2 1.0 6.0 38 40
d 0.234184 5 7 cbr 210 ------- 2 1.0 6.0 38 40
d 0.234184 4 7 cbr 210 ------- 2 1.0 6.0 38 40
r 0.23459 1 2 cbr 210 ------- 2 1.0 6.0 57 59
+ 0.23459 2 3 cbr 210 ------- 2 1.0 6.0 57 59
- 0.23459 2 3 cbr 210 ------- 2 1.0 6.0 57 59
r 0.235434 7 6 cbr 210 ------- 2 1.0 6.0 25 26
+ 0.23625 1 2 cbr 210 ------- 2 1.0 6.0 63 65
- 0.23625 1 2 cbr 210 ------- 2 1.0 6.0 63 65
r 0.23668 2 3 cbr 210 ------- 2 1.0 6.0 52 54
h 0.23668 3 7 cbr 210 ------- 2 1.0 6.0 52 54
+ 0.23793 3 7 cbr 210 ------- 2 1.0 6.0 39 41
- 0.23793 3 7 cbr 210 ------- 2 1.0 6.0 39 41
d 0.237934 5 7 cbr 210 ------- 2 1.0 6.0 39 41
d 0.237934 4 7 cbr 210 ------- 2 1.0 6.0 39 41
r 0.23834 1 2 cbr 210 ------- 2 1.0 6.0 58 60
+ 0.23834 2 3 cbr 210 ------- 2 1.0 6.0 58 60
- 0.23834 2 3 cbr 210 ------- 2 1.0 6.0 58 60
r 0.239184 7 6 cbr 210 ------- 2 1.0 6.0 26 27
+ 0.24 1 2 cbr 210 ------- 2 1.0 6.0 64 66
- 0.24 1 2 cbr 210 ------- 2 1.0 6.0 64 66
r 0.240328 7 3 ack 40 ------- 1 4.0 0.0 0 39
+ 0.240328 3 2 ack 40 ------- 1 4.0 0.0 0 39
- 0.240328 3 2 ack 40 ------- 1 4.0 0.0 0 39
r 0.24043 2 3 cbr 210 ------- 2 1.0 6.0 53 55
h 0.24043 3 7 cbr 210 ------- 2 1.0 6.0 53 55
+ 0.24168 3 7 cbr 210 ------- 2 1.0 6.0 40 42
- 0.24168 3 7 cbr 210 ------- 2 1.0 6.0 40 42
d 0.241684 5 7 cbr 210 ------- 2 1.0 6.0 40 42
d 0.241684 4 7 cbr 210 ------- 2 1.0 6.0 40 42
r 0.24209 1 2 cbr 210 ------- 2 1.0 6.0 59 61
+ 0.24209 2 3 cbr 210 ------- 2 1.0 6.0 59 61
- 0.24209 2 3 cbr 210 ------- 2 1.0 6.0 59 61
r 0.242934 7 6 cbr 210 ------- 2 1.0 6.0 27 28
+ 0.24375 1 2 cbr 210 ------- 2 1.0 6.0 65 67
- 0.24375 1 2 cbr 210 ------- 2 1.0 6.0 65 67
r 0.24418 2 3 cbr 210 ------- 2 1.0 6.0 54 56
h 0.24418 3 7 cbr 210 ------- 2 1.0 6.0 54 56
+ 0.24543 3 7 cbr 210 ------- 2 1.0 6.0 41 43
- 0.24543 3 7 cbr 210 ------- 2 1.0 6.0 41 43
d 0.245434 5 7 cbr 210 ------- 2 1.0 6.0 41 43
d 0.245434 4 7 cbr 210 ------- 2 1.0 6.0 41 43
r 0.24584 1 2 cbr 210 ------- 2 1.0 6.0 60 62
+ 0.24584 2 3 cbr 210 ------- 2 1.0 6.0 60 62
- 0.24584 2 3 cbr 210 ------- 2 1.0 6.0 60 62
r 0.246684 7 6 cbr 210 ------- 2 1.0 6.0 28 29
+ 0.2475 1 2 cbr 210 ------- 2 1.0 6.0 66 68
- 0.2475 1 2 cbr 210 ------- 2 1.0 6.0 66 68
r 0.24793 2 3 cbr 210 ------- 2 1.0 6.0 55 57
h 0.24793 3 7 cbr 210 ------- 2 1.0 6.0 55 57
+ 0.24918 3 7 cbr 210 ------- 2 1.0 6.0 42 44
- 0.24918 3 7 cbr 210 ------- 2 1.0 6.0 42 44
d 0.249184 5 7 cbr 210 ------- 2 1.0 6.0 42 44
d 0.249184 4 7 cbr 210 ------- 2 1.0 6.0 42 44
r 0.24959 1 2 cbr 210 ------- 2 1.0 6.0 61 63
+ 0.24959 2 3 cbr 210 ------- 2 1.0 6.0 61 63
- 0.24959 2 3 cbr 210 ------- 2 1.0 6.0 61 63
r 0.250434 7 6 cbr 210 ------- 2 1.0 6.0 29 30
+ 0.25125 1 2 cbr 210 ------- 2 1.0 6.0 67 69
- 0.25125 1 2 cbr 210 ------- 2 1.0 6.0 67 69
r 0.25168 2 3 cbr 210 ------- 2 1.0 6.0 56 58
h 0.25168 3 7 cbr 210 ------- 2 1.0 6.0 56 58