+ 0 0 2 tcp 40 ------- 0 0.0 3.0 0 0
- 0 0 2 tcp 40 ------- 0 0.0 3.0 0 0
+ 0 1 2 cbr 500 ------- 0 1.0 3.1 0 1
- 0 1 2 cbr 500 ------- 0 1.0 3.1 0 1
+ 0.005 1 2 cbr 500 ------- 0 1.0 3.1 1 2
- 0.005 1 2 cbr 500 ------- 0 1.0 3.1 1 2
+ 0.01 1 2 cbr 500 ------- 0 1.0 3.1 2 3
- 0.01 1 2 cbr 500 ------- 0 1.0 3.1 2 3
r 0.01016 0 2 tcp 40 ------- 0 0.0 3.0 0 0
+ 0.01016 2 3 tcp 40 ------- 0 0.0 3.0 0 0
- 0.01016 2 3 tcp 40 ------- 0 0.0 3.0 0 0
r 0.012 1 2 cbr 500 ------- 0 1.0 3.1 0 1
+ 0.012 2 3 cbr 500 ------- 0 1.0 3.1 0 1
- 0.012 2 3 cbr 500 ------- 0 1.0 3.1 0 1
+ 0.015 1 2 cbr 500 ------- 0 1.0 3.1 3 4
- 0.015 1 2 cbr 500 ------- 0 1.0 3.1 3 4
r 0.017 1 2 cbr 500 ------- 0 1.0 3.1 1 2
+ 0.017 2 3 cbr 500 ------- 0 1.0 3.1 1 2
- 0.017 2 3 cbr 500 ------- 0 1.0 3.1 1 2
+ 0.02 1 2 cbr 500 ------- 0 1.0 3.1 4 5
- 0.02 1 2 cbr 500 ------- 0 1.0 3.1 4 5
r 0.020516 2 3 tcp 40 ------- 0 0.0 3.0 0 0
+ 0.020516 3 2 ack 40 ------- 0 3.0 0.0 0 6
- 0.020516 3 2 ack 40 ------- 0 3.0 0.0 0 6
r 0.022 1 2 cbr 500 ------- 0 1.0 3.1 2 3
+ 0.022 2 3 cbr 500 ------- 0 1.0 3.1 2 3
- 0.022 2 3 cbr 500 ------- 0 1.0 3.1 2 3
+ 0.025 1 2 cbr 500 ------- 0 1.0 3.1 5 7
- 0.025 1 2 cbr 500 ------- 0 1.0 3.1 5 7
r 0.026444 2 3 cbr 500 ------- 0 1.0 3.1 0 1
r 0.027 1 2 cbr 500 ------- 0 1.0 3.1 3 4
+ 0.027 2 3 cbr 500 ------- 0 1.0 3.1 3 4
- 0.027 2 3 cbr 500 ------- 0 1.0 3.1 3 4
+ 0.03 1 2 cbr 500 ------- 0 1.0 3.1 6 8
- 0.03 1 2 cbr 500 ------- 0 1.0 3.1 6 8
r 0.030871 3 2 ack 40 ------- 0 3.0 0.0 0 6
+ 0.030871 2 0 ack 40 ------- 0 3.0 0.0 0 6
- 0.030871 2 0 ack 40 ------- 0 3.0 0.0 0 6
r 0.031444 2 3 cbr 500 ------- 0 1.0 3.1 1 2
r 0.032 1 2 cbr 500 ------- 0 1.0 3.1 4 5
+ 0.032 2 3 cbr 500 ------- 0 1.0 3.1 4 5
- 0.032 2 3 cbr 500 ------- 0 1.0 3.1 4 5
+ 0.035 1 2 cbr 500 ------- 0 1.0 3.1 7 9
- 0.035 1 2 cbr 500 ------- 0 1.0 3.1 7 9
r 0.036444 2 3 cbr 500 ------- 0 1.0 3.1 2 3
r 0.037 1 2 cbr 500 ------- 0 1.0 3.1 5 7
+ 0.037 2 3 cbr 500 ------- 0 1.0 3.1 5 7
- 0.037 2 3 cbr 500 ------- 0 1.0 3.1 5 7
+ 0.04 1 2 cbr 500 ------- 0 1.0 3.1 8 10
- 0.04 1 2 cbr 500 ------- 0 1.0 3.1 8 10
r 0.041031 2 0 ack 40 ------- 0 3.0 0.0 0 6
+ 0.041031 0 2 tcp 1040 ------- 0 0.0 3.0 1 11
- 0.041031 0 2 tcp 1040 ------- 0 0.0 3.0 1 11
+ 0.041031 0 2 tcp 1040 ------- 0 0.0 3.0 2 12
r 0.041444 2 3 cbr 500 ------- 0 1.0 3.1 3 4
r 0.042 1 2 cbr 500 ------- 0 1.0 3.1 6 8
+ 0.042 2 3 cbr 500 ------- 0 1.0 3.1 6 8
- 0.042 2 3 cbr 500 ------- 0 1.0 3.1 6 8
+ 0.045 1 2 cbr 500 ------- 0 1.0 3.1 9 13
- 0.045 1 2 cbr 500 ------- 0 1.0 3.1 9 13
- 0.045191 0 2 tcp 1040 ------- 0 0.0 3.0 2 12
r 0.046444 2 3 cbr 500 ------- 0 1.0 3.1 4 5
r 0.047 1 2 cbr 500 ------- 0 1.0 3.1 7 9
+ 0.047 2 3 cbr 500 ------- 0 1.0 3.1 7 9
- 0.047 2 3 cbr 500 ------- 0 1.0 3.1 7 9
+ 0.05 1 2 cbr 500 ------- 0 1.0 3.1 10 14
- 0.05 1 2 cbr 500 ------- 0 1.0 3.1 10 14
r 0.051444 2 3 cbr 500 ------- 0 1.0 3.1 5 7
r 0.052 1 2 cbr 500 ------- 0 1.0 3.1 8 10
+ 0.052 2 3 cbr 500 ------- 0 1.0 3.1 8 10
- 0.052 2 3 cbr 500 ------- 0 1.0 3.1 8 10
+ 0.055 1 2 cbr 500 ------- 0 1.0 3.1 11 15
- 0.055 1 2 cbr 500 ------- 0 1.0 3.1 11 15
r 0.055191 0 2 tcp 1040 ------- 0 0.0 3.0 1 11
+ 0.055191 2 3 tcp 1040 ------- 0 0.0 3.0 1 11
r 0.056444 2 3 cbr 500 ------- 0 1.0 3.1 6 8
- 0.056444 2 3 tcp 1040 ------- 0 0.0 3.0 1 11
r 0.057 1 2 cbr 500 ------- 0 1.0 3.1 9 13
+ 0.057 2 3 cbr 500 ------- 0 1.0 3.1 9 13
r 0.059351 0 2 tcp 1040 ------- 0 0.0 3.0 2 12
+ 0.059351 2 3 tcp 1040 ------- 0 0.0 3.0 2 12
+ 0.06 1 2 cbr 500 ------- 0 1.0 3.1 12 16
- 0.06 1 2 cbr 500 ------- 0 1.0 3.1 12 16
r 0.061444 2 3 cbr 500 ------- 0 1.0 3.1 7 9
r 0.062 1 2 cbr 500 ------- 0 1.0 3.1 10 14
+ 0.062 2 3 cbr 500 ------- 0 1.0 3.1 10 14
+ 0.065 1 2 cbr 500 ------- 0 1.0 3.1 13 17
- 0.065 1 2 cbr 500 ------- 0 1.0 3.1 13 17
- 0.065689 2 3 cbr 500 ------- 0 1.0 3.1 9 13
r 0.066444 2 3 cbr 500 ------- 0 1.0 3.1 8 10
r 0.067 1 2 cbr 500 ------- 0 1.0 3.1 11 15
+ 0.067 2 3 cbr 500 ------- 0 1.0 3.1 11 15
+ 0.07 1 2 cbr 500 ------- 0 1.0 3.1 14 18
- 0.07 1 2 cbr 500 ------- 0 1.0 3.1 14 18
- 0.070133 2 3 tcp 1040 ------- 0 0.0 3.0 2 12
r 0.072 1 2 cbr 500 ------- 0 1.0 3.1 12 16
+ 0.072 2 3 cbr 500 ------- 0 1.0 3.1 12 16
+ 0.075 1 2 cbr 500 ------- 0 1.0 3.1 15 19
- 0.075 1 2 cbr 500 ------- 0 1.0 3.1 15 19
r 0.075689 2 3 tcp 1040 ------- 0 0.0 3.0 1 11
+ 0.075689 3 2 ack 40 ------- 0 3.0 0.0 1 20
- 0.075689 3 2 ack 40 ------- 0 3.0 0.0 1 20
r 0.077 1 2 cbr 500 ------- 0 1.0 3.1 13 17
+ 0.077 2 3 cbr 500 ------- 0 1.0 3.1 13 17
- 0.079378 2 3 cbr 500 ------- 0 1.0 3.1 10 14
+ 0.08 1 2 cbr 500 ------- 0 1.0 3.1 16 21
- 0.08 1 2 cbr 500 ------- 0 1.0 3.1 16 21
r 0.080133 2 3 cbr 500 ------- 0 1.0 3.1 9 13
r 0.082 1 2 cbr 500 ------- 0 1.0 3.1 14 18
+ 0.082 2 3 cbr 500 ------- 0 1.0 3.1 14 18
- 0.083822 2 3 cbr 500 ------- 0 1.0 3.1 11 15
+ 0.085 1 2 cbr 500 ------- 0 1.0 3.1 17 22
- 0.085 1 2 cbr 500 ------- 0 1.0 3.1 17 22
r 0.086044 3 2 ack 40 ------- 0 3.0 0.0 1 20
+ 0.086044 2 0 ack 40 ------- 0 3.0 0.0 1 20
- 0.086044 2 0 ack 40 ------- 0 3.0 0.0 1 20
r 0.087 1 2 cbr 500 ------- 0 1.0 3.1 15 19
+ 0.087 2 3 cbr 500 ------- 0 1.0 3.1 15 19
- 0.088267 2 3 cbr 500 ------- 0 1.0 3.1 12 16
r 0.089378 2 3 tcp 1040 ------- 0 0.0 3.0 2 12
+ 0.089378 3 2 ack 40 ------- 0 3.0 0.0 2 23
- 0.089378 3 2 ack 40 ------- 0 3.0 0.0 2 23
+ 0.09 1 2 cbr 500 ------- 0 1.0 3.1 18 24
- 0.09 1 2 cbr 500 ------- 0 1.0 3.1 18 24
r 0.092 1 2 cbr 500 ------- 0 1.0 3.1 16 21
+ 0.092 2 3 cbr 500 ------- 0 1.0 3.1 16 21
- 0.092711 2 3 cbr 500 ------- 0 1.0 3.1 13 17
r 0.093822 2 3 cbr 500 ------- 0 1.0 3.1 10 14
+ 0.095 1 2 cbr 500 ------- 0 1.0 3.1 19 25
- 0.095 1 2 cbr 500 ------- 0 1.0 3.1 19 25
r 0.096204 2 0 ack 40 ------- 0 3.0 0.0 1 20
+ 0.096204 0 2 tcp 1040 ------- 0 0.0 3.0 3 26
- 0.096204 0 2 tcp 1040 ------- 0 0.0 3.0 3 26
+ 0.096204 0 2 tcp 1040 ------- 0 0.0 3.0 4 27
r 0.097 1 2 cbr 500 ------- 0 1.0 3.1 17 22
+ 0.097 2 3 cbr 500 ------- 0 1.0 3.1 17 22
- 0.097156 2 3 cbr 500 ------- 0 1.0 3.1 14 18
r 0.098267 2 3 cbr 500 ------- 0 1.0 3.1 11 15
r 0.099733 3 2 ack 40 ------- 0 3.0 0.0 2 23
+ 0.099733 2 0 ack 40 ------- 0 3.0 0.0 2 23
- 0.099733 2 0 ack 40 ------- 0 3.0 0.0 2 23
+ 0.1 1 2 cbr 500 ------- 0 1.0 3.1 20 28
- 0.1 1 2 cbr 500 ------- 0 1.0 3.1 20 28
- 0.100364 0 2 tcp 1040 ------- 0 0.0 3.0 4 27
- 0.1016 2 3 cbr 500 ------- 0 1.0 3.1 15 19
r 0.102 1 2 cbr 500 ------- 0 1.0 3.1 18 24
+ 0.102 2 3 cbr 500 ------- 0 1.0 3.1 18 24
r 0.102711 2 3 cbr 500 ------- 0 1.0 3.1 12 16
+ 0.105 1 2 cbr 500 ------- 0 1.0 3.1 21 29
- 0.105 1 2 cbr 500 ------- 0 1.0 3.1 21 29
- 0.106044 2 3 cbr 500 ------- 0 1.0 3.1 16 21
r 0.107 1 2 cbr 500 ------- 0 1.0 3.1 19 25
+ 0.107 2 3 cbr 500 ------- 0 1.0 3.1 19 25
r 0.107156 2 3 cbr 500 ------- 0 1.0 3.1 13 17
r 0.109893 2 0 ack 40 ------- 0 3.0 0.0 2 23
+ 0.109893 0 2 tcp 1040 ------- 0 0.0 3.0 5 30
- 0.109893 0 2 tcp 1040 ------- 0 0.0 3.0 5 30
+ 0.109893 0 2 tcp 1040 ------- 0 0.0 3.0 6 31
+ 0.11 1 2 cbr 500 ------- 0 1.0 3.1 22 32
- 0.11 1 2 cbr 500 ------- 0 1.0 3.1 22 32
r 0.110364 0 2 tcp 1040 ------- 0 0.0 3.0 3 26
+ 0.110364 2 3 tcp 1040 ------- 0 0.0 3.0 3 26
- 0.110489 2 3 cbr 500 ------- 0 1.0 3.1 17 22
r 0.1116 2 3 cbr 500 ------- 0 1.0 3.1 14 18
r 0.112 1 2 cbr 500 ------- 0 1.0 3.1 20 28
+ 0.112 2 3 cbr 500 ------- 0 1.0 3.1 20 28
- 0.114053 0 2 tcp 1040 ------- 0 0.0 3.0 6 31
r 0.114524 0 2 tcp 1040 ------- 0 0.0 3.0 4 27
+ 0.114524 2 3 tcp 1040 ------- 0 0.0 3.0 4 27
- 0.114933 2 3 cbr 500 ------- 0 1.0 3.1 18 24
+ 0.115 1 2 cbr 500 ------- 0 1.0 3.1 23 33
- 0.115 1 2 cbr 500 ------- 0 1.0 3.1 23 33
r 0.116044 2 3 cbr 500 ------- 0 1.0 3.1 15 19
r 0.117 1 2 cbr 500 ------- 0 1.0 3.1 21 29
+ 0.117 2 3 cbr 500 ------- 0 1.0 3.1 21 29
- 0.119378 2 3 cbr 500 ------- 0 1.0 3.1 19 25
+ 0.12 1 2 cbr 500 ------- 0 1.0 3.1 24 34
- 0.12 1 2 cbr 500 ------- 0 1.0 3.1 24 34
r 0.120489 2 3 cbr 500 ------- 0 1.0 3.1 16 21
r 0.122 1 2 cbr 500 ------- 0 1.0 3.1 22 32
+ 0.122 2 3 cbr 500 ------- 0 1.0 3.1 22 32
- 0.123822 2 3 tcp 1040 ------- 0 0.0 3.0 3 26
r 0.124053 0 2 tcp 1040 ------- 0 0.0 3.0 5 30
+ 0.124053 2 3 tcp 1040 ------- 0 0.0 3.0 5 30
r 0.124933 2 3 cbr 500 ------- 0 1.0 3.1 17 22
+ 0.125 1 2 cbr 500 ------- 0 1.0 3.1 25 35
- 0.125 1 2 cbr 500 ------- 0 1.0 3.1 25 35
r 0.127 1 2 cbr 500 ------- 0 1.0 3.1 23 33
+ 0.127 2 3 cbr 500 ------- 0 1.0 3.1 23 33
r 0.128213 0 2 tcp 1040 ------- 0 0.0 3.0 6 31
+ 0.128213 2 3 tcp 1040 ------- 0 0.0 3.0 6 31
r 0.129378 2 3 cbr 500 ------- 0 1.0 3.1 18 24
+ 0.13 1 2 cbr 500 ------- 0 1.0 3.1 26 36
- 0.13 1 2 cbr 500 ------- 0 1.0 3.1 26 36
r 0.132 1 2 cbr 500 ------- 0 1.0 3.1 24 34
+ 0.132 2 3 cbr 500 ------- 0 1.0 3.1 24 34
- 0.133067 2 3 cbr 500 ------- 0 1.0 3.1 20 28
r 0.133822 2 3 cbr 500 ------- 0 1.0 3.1 19 25
+ 0.135 1 2 cbr 500 ------- 0 1.0 3.1 27 37
- 0.135 1 2 cbr 500 ------- 0 1.0 3.1 27 37
r 0.137 1 2 cbr 500 ------- 0 1.0 3.1 25 35
+ 0.137 2 3 cbr 500 ------- 0 1.0 3.1 25 35
- 0.137511 2 3 tcp 1040 ------- 0 0.0 3.0 4 27
+ 0.14 1 2 cbr 500 ------- 0 1.0 3.1 28 38
- 0.14 1 2 cbr 500 ------- 0 1.0 3.1 28 38
r 0.142 1 2 cbr 500 ------- 0 1.0 3.1 26 36
+ 0.142 2 3 cbr 500 ------- 0 1.0 3.1 26 36
r 0.143067 2 3 tcp 1040 ------- 0 0.0 3.0 3 26
+ 0.143067 3 2 ack 40 ------- 0 3.0 0.0 3 39
- 0.143067 3 2 ack 40 ------- 0 3.0 0.0 3 39
+ 0.145 1 2 cbr 500 ------- 0 1.0 3.1 29 40
- 0.145 1 2 cbr 500 ------- 0 1.0 3.1 29 40
- 0.146756 2 3 cbr 500 ------- 0 1.0 3.1 21 29
r 0.147 1 2 cbr 500 ------- 0 1.0 3.1 27 37
+ 0.147 2 3 cbr 500 ------- 0 1.0 3.1 27 37
r 0.147511 2 3 cbr 500 ------- 0 1.0 3.1 20 28
+ 0.15 1 2 cbr 500 ------- 0 1.0 3.1 30 41
- 0.15 1 2 cbr 500 ------- 0 1.0 3.1 30 41
- 0.1512 2 3 cbr 500 ------- 0 1.0 3.1 22 32
r 0.152 1 2 cbr 500 ------- 0 1.0 3.1 28 38
+ 0.152 2 3 cbr 500 ------- 0 1.0 3.1 28 38
r 0.153422 3 2 ack 40 ------- 0 3.0 0.0 3 39
+ 0.153422 2 0 ack 40 ------- 0 3.0 0.0 3 39
- 0.153422 2 0 ack 40 ------- 0 3.0 0.0 3 39
+ 0.155 1 2 cbr 500 ------- 0 1.0 3.1 31 42
- 0.155 1 2 cbr 500 ------- 0 1.0 3.1 31 42
- 0.155644 2 3 tcp 1040 ------- 0 0.0 3.0 5 30
r 0.156756 2 3 tcp 1040 ------- 0 0.0 3.0 4 27
+ 0.156756 3 2 ack 40 ------- 0 3.0 0.0 4 43
- 0.156756 3 2 ack 40 ------- 0 3.0 0.0 4 43
r 0.157 1 2 cbr 500 ------- 0 1.0 3.1 29 40
+ 0.157 2 3 cbr 500 ------- 0 1.0 3.1 29 40
+ 0.16 1 2 cbr 500 ------- 0 1.0 3.1 32 44
- 0.16 1 2 cbr 500 ------- 0 1.0 3.1 32 44
r 0.1612 2 3 cbr 500 ------- 0 1.0 3.1 21 29
r 0.162 1 2 cbr 500 ------- 0 1.0 3.1 30 41
+ 0.162 2 3 cbr 500 ------- 0 1.0 3.1 30 41
r 0.163582 2 0 ack 40 ------- 0 3.0 0.0 3 39
+ 0.163582 0 2 tcp 1040 ------- 0 0.0 3.0 7 45
- 0.163582 0 2 tcp 1040 ------- 0 0.0 3.0 7 45
+ 0.163582 0 2 tcp 1040 ------- 0 0.0 3.0 8 46
- 0.164889 2 3 cbr 500 ------- 0 1.0 3.1 23 33
+ 0.165 1 2 cbr 500 ------- 0 1.0 3.1 33 47
- 0.165 1 2 cbr 500 ------- 0 1.0 3.1 33 47
r 0.165644 2 3 cbr 500 ------- 0 1.0 3.1 22 32
r 0.167 1 2 cbr 500 ------- 0 1.0 3.1 31 42
+ 0.167 2 3 cbr 500 ------- 0 1.0 3.1 31 42
r 0.167111 3 2 ack 40 ------- 0 3.0 0.0 4 43
+ 0.167111 2 0 ack 40 ------- 0 3.0 0.0 4 43
- 0.167111 2 0 ack 40 ------- 0 3.0 0.0 4 43
- 0.167742 0 2 tcp 1040 ------- 0 0.0 3.0 8 46
- 0.169333 2 3 tcp 1040 ------- 0 0.0 3.0 6 31
+ 0.17 1 2 cbr 500 ------- 0 1.0 3.1 34 48
- 0.17 1 2 cbr 500 ------- 0 1.0 3.1 34 48
r 0.172 1 2 cbr 500 ------- 0 1.0 3.1 32 44
+ 0.172 2 3 cbr 500 ------- 0 1.0 3.1 32 44
r 0.174889 2 3 tcp 1040 ------- 0 0.0 3.0 5 30
+ 0.174889 3 2 ack 40 ------- 0 3.0 0.0 5 49
- 0.174889 3 2 ack 40 ------- 0 3.0 0.0 5 49
+ 0.175 1 2 cbr 500 ------- 0 1.0 3.1 35 50
- 0.175 1 2 cbr 500 ------- 0 1.0 3.1 35 50
r 0.177 1 2 cbr 500 ------- 0 1.0 3.1 33 47
+ 0.177 2 3 cbr 500 ------- 0 1.0 3.1 33 47
r 0.177271 2 0 ack 40 ------- 0 3.0 0.0 4 43
+ 0.177271 0 2 tcp 1040 ------- 0 0.0 3.0 9 51
- 0.177271 0 2 tcp 1040 ------- 0 0.0 3.0 9 51
+ 0.177271 0 2 tcp 1040 ------- 0 0.0 3.0 10 52
r 0.177742 0 2 tcp 1040 ------- 0 0.0 3.0 7 45
+ 0.177742 2 3 tcp 1040 ------- 0 0.0 3.0 7 45
- 0.178578 2 3 cbr 500 ------- 0 1.0 3.1 24 34
r 0.179333 2 3 cbr 500 ------- 0 1.0 3.1 23 33
+ 0.18 1 2 cbr 500 ------- 0 1.0 3.1 36 53
- 0.18 1 2 cbr 500 ------- 0 1.0 3.1 36 53
- 0.181431 0 2 tcp 1040 ------- 0 0.0 3.0 10 52
r 0.181902 0 2 tcp 1040 ------- 0 0.0 3.0 8 46
+ 0.181902 2 3 tcp 1040 ------- 0 0.0 3.0 8 46
r 0.182 1 2 cbr 500 ------- 0 1.0 3.1 34 48
+ 0.182 2 3 cbr 500 ------- 0 1.0 3.1 34 48
- 0.183022 2 3 cbr 500 ------- 0 1.0 3.1 25 35
+ 0.185 1 2 cbr 500 ------- 0 1.0 3.1 37 54
- 0.185 1 2 cbr 500 ------- 0 1.0 3.1 37 54
r 0.185244 3 2 ack 40 ------- 0 3.0 0.0 5 49
+ 0.185244 2 0 ack 40 ------- 0 3.0 0.0 5 49
- 0.185244 2 0 ack 40 ------- 0 3.0 0.0 5 49
r 0.187 1 2 cbr 500 ------- 0 1.0 3.1 35 50
+ 0.187 2 3 cbr 500 ------- 0 1.0 3.1 35 50
- 0.187467 2 3 cbr 500 ------- 0 1.0 3.1 26 36
r 0.188578 2 3 tcp 1040 ------- 0 0.0 3.0 6 31
+ 0.188578 3 2 ack 40 ------- 0 3.0 0.0 6 55
- 0.188578 3 2 ack 40 ------- 0 3.0 0.0 6 55
+ 0.19 1 2 cbr 500 ------- 0 1.0 3.1 38 56
- 0.19 1 2 cbr 500 ------- 0 1.0 3.1 38 56
r 0.191431 0 2 tcp 1040 ------- 0 0.0 3.0 9 51
+ 0.191431 2 3 tcp 1040 ------- 0 0.0 3.0 9 51
- 0.191911 2 3 cbr 500 ------- 0 1.0 3.1 27 37
r 0.192 1 2 cbr 500 ------- 0 1.0 3.1 36 53
+ 0.192 2 3 cbr 500 ------- 0 1.0 3.1 36 53
r 0.193022 2 3 cbr 500 ------- 0 1.0 3.1 24 34
+ 0.195 1 2 cbr 500 ------- 0 1.0 3.1 39 57
- 0.195 1 2 cbr 500 ------- 0 1.0 3.1 39 57
r 0.195404 2 0 ack 40 ------- 0 3.0 0.0 5 49
+ 0.195404 0 2 tcp 1040 ------- 0 0.0 3.0 11 58
- 0.195404 0 2 tcp 1040 ------- 0 0.0 3.0 11 58
+ 0.195404 0 2 tcp 1040 ------- 0 0.0 3.0 12 59
r 0.195591 0 2 tcp 1040 ------- 0 0.0 3.0 10 52
+ 0.195591 2 3 tcp 1040 ------- 0 0.0 3.0 10 52
- 0.196356 2 3 cbr 500 ------- 0 1.0 3.1 28 38
r 0.197 1 2 cbr 500 ------- 0 1.0 3.1 37 54
+ 0.197 2 3 cbr 500 ------- 0 1.0 3.1 37 54
r 0.197467 2 3 cbr 500 ------- 0 1.0 3.1 25 35
r 0.198933 3 2 ack 40 ------- 0 3.0 0.0 6 55
+ 0.198933 2 0 ack 40 ------- 0 3.0 0.0 6 55
- 0.198933 2 0 ack 40 ------- 0 3.0 0.0 6 55
- 0.199564 0 2 tcp 1040 ------- 0 0.0 3.0 12 59
+ 0.2 1 2 cbr 500 ------- 0 1.0 3.1 40 60
- 0.2 1 2 cbr 500 ------- 0 1.0 3.1 40 60
- 0.2008 2 3 cbr 500 ------- 0 1.0 3.1 29 40
r 0.201911 2 3 cbr 500 ------- 0 1.0 3.1 26 36
r 0.202 1 2 cbr 500 ------- 0 1.0 3.1 38 56
+ 0.202 2 3 cbr 500 ------- 0 1.0 3.1 38 56
+ 0.205 1 2 cbr 500 ------- 0 1.0 3.1 41 61
- 0.205 1 2 cbr 500 ------- 0 1.0 3.1 41 61
- 0.205244 2 3 cbr 500 ------- 0 1.0 3.1 30 41
r 0.206356 2 3 cbr 500 ------- 0 1.0 3.1 27 37
r 0.207 1 2 cbr 500 ------- 0 1.0 3.1 39 57
+ 0.207 2 3 cbr 500 ------- 0 1.0 3.1 39 57
r 0.209093 2 0 ack 40 ------- 0 3.0 0.0 6 55
+ 0.209093 0 2 tcp 1040 ------- 0 0.0 3.0 13 62
- 0.209093 0 2 tcp 1040 ------- 0 0.0 3.0 13 62
+ 0.209093 0 2 tcp 1040 ------- 0 0.0 3.0 14 63
r 0.209564 0 2 tcp 1040 ------- 0 0.0 3.0 11 58
+ 0.209564 2 3 tcp 1040 ------- 0 0.0 3.0 11 58
- 0.209689 2 3 cbr 500 ------- 0 1.0 3.1 31 42
+ 0.21 1 2 cbr 500 ------- 0 1.0 3.1 42 64
- 0.21 1 2 cbr 500 ------- 0 1.0 3.1 42 64
r 0.2108 2 3 cbr 500 ------- 0 1.0 3.1 28 38
r 0.212 1 2 cbr 500 ------- 0 1.0 3.1 40 60
+ 0.212 2 3 cbr 500 ------- 0 1.0 3.1 40 60
- 0.213253 0 2 tcp 1040 ------- 0 0.0 3.0 14 63
r 0.213724 0 2 tcp 1040 ------- 0 0.0 3.0 12 59
+ 0.213724 2 3 tcp 1040 ------- 0 0.0 3.0 12 59
- 0.214133 2 3 cbr 500 ------- 0 1.0 3.1 32 44
+ 0.215 1 2 cbr 500 ------- 0 1.0 3.1 43 65
- 0.215 1 2 cbr 500 ------- 0 1.0 3.1 43 65
r 0.215244 2 3 cbr 500 ------- 0 1.0 3.1 29 40
r 0.217 1 2 cbr 500 ------- 0 1.0 3.1 41 61
+ 0.217 2 3 cbr 500 ------- 0 1.0 3.1 41 61
- 0.218578 2 3 cbr 500 ------- 0 1.0 3.1 33 47
r 0.219689 2 3 cbr 500 ------- 0 1.0 3.1 30 41
+ 0.22 1 2 cbr 500 ------- 0 1.0 3.1 44 66
- 0.22 1 2 cbr 500 ------- 0 1.0 3.1 44 66
r 0.222 1 2 cbr 500 ------- 0 1.0 3.1 42 64
+ 0.222 2 3 cbr 500 ------- 0 1.0 3.1 42 64
- 0.223022 2 3 tcp 1040 ------- 0 0.0 3.0 7 45
r 0.223253 0 2 tcp 1040 ------- 0 0.0 3.0 13 62
+ 0.223253 2 3 tcp 1040 ------- 0 0.0 3.0 13 62
r 0.224133 2 3 cbr 500 ------- 0 1.0 3.1 31 42
+ 0.225 1 2 cbr 500 ------- 0 1.0 3.1 45 67
- 0.225 1 2 cbr 500 ------- 0 1.0 3.1 45 67
r 0.227 1 2 cbr 500 ------- 0 1.0 3.1 43 65
+ 0.227 2 3 cbr 500 ------- 0 1.0 3.1 43 65
r 0.227413 0 2 tcp 1040 ------- 0 0.0 3.0 14 63
+ 0.227413 2 3 tcp 1040 ------- 0 0.0 3.0 14 63
r 0.228578 2 3 cbr 500 ------- 0 1.0 3.1 32 44
+ 0.23 1 2 cbr 500 ------- 0 1.0 3.1 46 68
- 0.23 1 2 cbr 500 ------- 0 1.0 3.1 46 68
r 0.232 1 2 cbr 500 ------- 0 1.0 3.1 44 66
+ 0.232 2 3 cbr 500 ------- 0 1.0 3.1 44 66
- 0.232267 2 3 tcp 1040 ------- 0 0.0 3.0 8 46
r 0.233022 2 3 cbr 500 ------- 0 1.0 3.1 33 47
+ 0.235 1 2 cbr 500 ------- 0 1.0 3.1 47 69
- 0.235 1 2 cbr 500 ------- 0 1.0 3.1 47 69
r 0.237 1 2 cbr 500 ------- 0 1.0 3.1 45 67
+ 0.237 2 3 cbr 500 ------- 0 1.0 3.1 45 67
+ 0.24 1 2 cbr 500 ------- 0 1.0 3.1 48 70
- 0.24 1 2 cbr 500 ------- 0 1.0 3.1 48 70
- 0.241511 2 3 cbr 500 ------- 0 1.0 3.1 34 48
r 0.242 1 2 cbr 500 ------- 0 1.0 3.1 46 68
+ 0.242 2 3 cbr 500 ------- 0 1.0 3.1 46 68
r 0.242267 2 3 tcp 1040 ------- 0 0.0 3.0 7 45
+ 0.242267 3 2 ack 40 ------- 0 3.0 0.0 7 71
- 0.242267 3 2 ack 40 ------- 0 3.0 0.0 7 71
+ 0.245 1 2 cbr 500 ------- 0 1.0 3.1 49 72
- 0.245 1 2 cbr 500 ------- 0 1.0 3.1 49 72
- 0.245956 2 3 cbr 500 ------- 0 1.0 3.1 35 50
r 0.247 1 2 cbr 500 ------- 0 1.0 3.1 47 69
+ 0.247 2 3 cbr 500 ------- 0 1.0 3.1 47 69
+ 0.25 1 2 cbr 500 ------- 0 1.0 3.1 50 73
- 0.25 1 2 cbr 500 ------- 0 1.0 3.1 50 73
- 0.2504 2 3 tcp 1040 ------- 0 0.0 3.0 9 51
r 0.251511 2 3 tcp 1040 ------- 0 0.0 3.0 8 46
+ 0.251511 3 2 ack 40 ------- 0 3.0 0.0 8 74
- 0.251511 3 2 ack 40 ------- 0 3.0 0.0 8 74
r 0.252 1 2 cbr 500 ------- 0 1.0 3.1 48 70
+ 0.252 2 3 cbr 500 ------- 0 1.0 3.1 48 70
r 0.252622 3 2 ack 40 ------- 0 3.0 0.0 7 71
+ 0.252622 2 0 ack 40 ------- 0 3.0 0.0 7 71
- 0.252622 2 0 ack 40 ------- 0 3.0 0.0 7 71
+ 0.255 1 2 cbr 500 ------- 0 1.0 3.1 51 75
- 0.255 1 2 cbr 500 ------- 0 1.0 3.1 51 75
r 0.255956 2 3 cbr 500 ------- 0 1.0 3.1 34 48
r 0.257 1 2 cbr 500 ------- 0 1.0 3.1 49 72
+ 0.257 2 3 cbr 500 ------- 0 1.0 3.1 49 72
- 0.259644 2 3 cbr 500 ------- 0 1.0 3.1 36 53
+ 0.26 1 2 cbr 500 ------- 0 1.0 3.1 52 76
- 0.26 1 2 cbr 500 ------- 0 1.0 3.1 52 76
r 0.2604 2 3 cbr 500 ------- 0 1.0 3.1 35 50
r 0.261867 3 2 ack 40 ------- 0 3.0 0.0 8 74
+ 0.261867 2 0 ack 40 ------- 0 3.0 0.0 8 74
- 0.261867 2 0 ack 40 ------- 0 3.0 0.0 8 74
r 0.262 1 2 cbr 500 ------- 0 1.0 3.1 50 73
+ 0.262 2 3 cbr 500 ------- 0 1.0 3.1 50 73
r 0.262782 2 0 ack 40 ------- 0 3.0 0.0 7 71
+ 0.262782 0 2 tcp 1040 ------- 0 0.0 3.0 15 77
- 0.262782 0 2 tcp 1040 ------- 0 0.0 3.0 15 77
+ 0.262782 0 2 tcp 1040 ------- 0 0.0 3.0 16 78
- 0.264089 2 3 tcp 1040 ------- 0 0.0 3.0 10 52
+ 0.265 1 2 cbr 500 ------- 0 1.0 3.1 53 79
- 0.265 1 2 cbr 500 ------- 0 1.0 3.1 53 79
- 0.266942 0 2 tcp 1040 ------- 0 0.0 3.0 16 78
r 0.267 1 2 cbr 500 ------- 0 1.0 3.1 51 75
+ 0.267 2 3 cbr 500 ------- 0 1.0 3.1 51 75
r 0.269644 2 3 tcp 1040 ------- 0 0.0 3.0 9 51
+ 0.269644 3 2 ack 40 ------- 0 3.0 0.0 9 80
- 0.269644 3 2 ack 40 ------- 0 3.0 0.0 9 80
+ 0.27 1 2 cbr 500 ------- 0 1.0 3.1 54 81
- 0.27 1 2 cbr 500 ------- 0 1.0 3.1 54 81
r 0.272 1 2 cbr 500 ------- 0 1.0 3.1 52 76
+ 0.272 2 3 cbr 500 ------- 0 1.0 3.1 52 76
r 0.272027 2 0 ack 40 ------- 0 3.0 0.0 8 74
+ 0.272027 0 2 tcp 1040 ------- 0 0.0 3.0 17 82
- 0.272027 0 2 tcp 1040 ------- 0 0.0 3.0 17 82
+ 0.272027 0 2 tcp 1040 ------- 0 0.0 3.0 18 83
- 0.273333 2 3 cbr 500 ------- 0 1.0 3.1 37 54
r 0.274089 2 3 cbr 500 ------- 0 1.0 3.1 36 53
+ 0.275 1 2 cbr 500 ------- 0 1.0 3.1 55 84
- 0.275 1 2 cbr 500 ------- 0 1.0 3.1 55 84
- 0.276187 0 2 tcp 1040 ------- 0 0.0 3.0 18 83
r 0.276942 0 2 tcp 1040 ------- 0 0.0 3.0 15 77
+ 0.276942 2 3 tcp 1040 ------- 0 0.0 3.0 15 77
r 0.277 1 2 cbr 500 ------- 0 1.0 3.1 53 79
+ 0.277 2 3 cbr 500 ------- 0 1.0 3.1 53 79
- 0.277778 2 3 cbr 500 ------- 0 1.0 3.1 38 56
r 0.28 3 2 ack 40 ------- 0 3.0 0.0 9 80
+ 0.28 2 0 ack 40 ------- 0 3.0 0.0 9 80
- 0.28 2 0 ack 40 ------- 0 3.0 0.0 9 80
+ 0.28 1 2 cbr 500 ------- 0 1.0 3.1 56 85
- 0.28 1 2 cbr 500 ------- 0 1.0 3.1 56 85
r 0.281102 0 2 tcp 1040 ------- 0 0.0 3.0 16 78
+ 0.281102 2 3 tcp 1040 ------- 0 0.0 3.0 16 78
r 0.282 1 2 cbr 500 ------- 0 1.0 3.1 54 81
+ 0.282 2 3 cbr 500 ------- 0 1.0 3.1 54 81
- 0.282222 2 3 cbr 500 ------- 0 1.0 3.1 39 57
r 0.283333 2 3 tcp 1040 ------- 0 0.0 3.0 10 52
+ 0.283333 3 2 ack 40 ------- 0 3.0 0.0 10 86
- 0.283333 3 2 ack 40 ------- 0 3.0 0.0 10 86
+ 0.285 1 2 cbr 500 ------- 0 1.0 3.1 57 87
- 0.285 1 2 cbr 500 ------- 0 1.0 3.1 57 87
r 0.286187 0 2 tcp 1040 ------- 0 0.0 3.0 17 82
+ 0.286187 2 3 tcp 1040 ------- 0 0.0 3.0 17 82
- 0.286667 2 3 tcp 1040 ------- 0 0.0 3.0 11 58
r 0.287 1 2 cbr 500 ------- 0 1.0 3.1 55 84
+ 0.287 2 3 cbr 500 ------- 0 1.0 3.1 55 84
r 0.287778 2 3 cbr 500 ------- 0 1.0 3.1 37 54
+ 0.29 1 2 cbr 500 ------- 0 1.0 3.1 58 88
- 0.29 1 2 cbr 500 ------- 0 1.0 3.1 58 88
r 0.29016 2 0 ack 40 ------- 0 3.0 0.0 9 80
+ 0.29016 0 2 tcp 1040 ------- 0 0.0 3.0 19 89
- 0.29016 0 2 tcp 1040 ------- 0 0.0 3.0 19 89
+ 0.29016 0 2 tcp 1040 ------- 0 0.0 3.0 20 90
r 0.290347 0 2 tcp 1040 ------- 0 0.0 3.0 18 83
+ 0.290347 2 3 tcp 1040 ------- 0 0.0 3.0 18 83
r 0.292 1 2 cbr 500 ------- 0 1.0 3.1 56 85
+ 0.292 2 3 cbr 500 ------- 0 1.0 3.1 56 85
r 0.292222 2 3 cbr 500 ------- 0 1.0 3.1 38 56
r 0.293689 3 2 ack 40 ------- 0 3.0 0.0 10 86
+ 0.293689 2 0 ack 40 ------- 0 3.0 0.0 10 86
- 0.293689 2 0 ack 40 ------- 0 3.0 0.0 10 86
- 0.29432 0 2 tcp 1040 ------- 0 0.0 3.0 20 90
+ 0.295 1 2 cbr 500 ------- 0 1.0 3.1 59 91
- 0.295 1 2 cbr 500 ------- 0 1.0 3.1 59 91
- 0.295911 2 3 cbr 500 ------- 0 1.0 3.1 40 60
r 0.296667 2 3 cbr 500 ------- 0 1.0 3.1 39 57
r 0.297 1 2 cbr 500 ------- 0 1.0 3.1 57 87
+ 0.297 2 3 cbr 500 ------- 0 1.0 3.1 57 87
+ 0.3 1 2 cbr 500 ------- 0 1.0 3.1 60 92
- 0.3 1 2 cbr 500 ------- 0 1.0 3.1 60 92
- 0.300356 2 3 tcp 1040 ------- 0 0.0 3.0 12 59
r 0.302 1 2 cbr 500 ------- 0 1.0 3.1 58 88
+ 0.302 2 3 cbr 500 ------- 0 1.0 3.1 58 88
r 0.303849 2 0 ack 40 ------- 0 3.0 0.0 10 86
+ 0.303849 0 2 tcp 1040 ------- 0 0.0 3.0 21 93
- 0.303849 0 2 tcp 1040 ------- 0 0.0 3.0 21 93
+ 0.303849 0 2 tcp 1040 ------- 0 0.0 3.0 22 94
r 0.30432 0 2 tcp 1040 ------- 0 0.0 3.0 19 89
+ 0.30432 2 3 tcp 1040 ------- 0 0.0 3.0 19 89
+ 0.305 1 2 cbr 500 ------- 0 1.0 3.1 61 95
- 0.305 1 2 cbr 500 ------- 0 1.0 3.1 61 95
r 0.305911 2 3 tcp 1040 ------- 0 0.0 3.0 11 58
+ 0.305911 3 2 ack 40 ------- 0 3.0 0.0 11 96
- 0.305911 3 2 ack 40 ------- 0 3.0 0.0 11 96
r 0.307 1 2 cbr 500 ------- 0 1.0 3.1 59 91
+ 0.307 2 3 cbr 500 ------- 0 1.0 3.1 59 91
- 0.308009 0 2 tcp 1040 ------- 0 0.0 3.0 22 94
r 0.30848 0 2 tcp 1040 ------- 0 0.0 3.0 20 90
+ 0.30848 2 3 tcp 1040 ------- 0 0.0 3.0 20 90
- 0.3096 2 3 cbr 500 ------- 0 1.0 3.1 41 61
+ 0.31 1 2 cbr 500 ------- 0 1.0 3.1 62 97
- 0.31 1 2 cbr 500 ------- 0 1.0 3.1 62 97
r 0.310356 2 3 cbr 500 ------- 0 1.0 3.1 40 60
r 0.312 1 2 cbr 500 ------- 0 1.0 3.1 60 92
+ 0.312 2 3 cbr 500 ------- 0 1.0 3.1 60 92
- 0.314044 2 3 cbr 500 ------- 0 1.0 3.1 42 64
+ 0.315 1 2 cbr 500 ------- 0 1.0 3.1 63 98
- 0.315 1 2 cbr 500 ------- 0 1.0 3.1 63 98
r 0.316267 3 2 ack 40 ------- 0 3.0 0.0 11 96
+ 0.316267 2 0 ack 40 ------- 0 3.0 0.0 11 96
- 0.316267 2 0 ack 40 ------- 0 3.0 0.0 11 96
r 0.317 1 2 cbr 500 ------- 0 1.0 3.1 61 95
+ 0.317 2 3 cbr 500 ------- 0 1.0 3.1 61 95
r 0.318009 0 2 tcp 1040 ------- 0 0.0 3.0 21 93
+ 0.318009 2 3 tcp 1040 ------- 0 0.0 3.0 21 93
- 0.318489 2 3 tcp 1040 ------- 0 0.0 3.0 13 62
r 0.3196 2 3 tcp 1040 ------- 0 0.0 3.0 12 59
+ 0.3196 3 2 ack 40 ------- 0 3.0 0.0 12 99
- 0.3196 3 2 ack 40 ------- 0 3.0 0.0 12 99
+ 0.32 1 2 cbr 500 ------- 0 1.0 3.1 64 100
- 0.32 1 2 cbr 500 ------- 0 1.0 3.1 64 100
r 0.322 1 2 cbr 500 ------- 0 1.0 3.1 62 97
+ 0.322 2 3 cbr 500 ------- 0 1.0 3.1 62 97
r 0.322169 0 2 tcp 1040 ------- 0 0.0 3.0 22 94
+ 0.322169 2 3 tcp 1040 ------- 0 0.0 3.0 22 94
r 0.324044 2 3 cbr 500 ------- 0 1.0 3.1 41 61
+ 0.325 1 2 cbr 500 ------- 0 1.0 3.1 65 101
- 0.325 1 2 cbr 500 ------- 0 1.0 3.1 65 101
r 0.326427 2 0 ack 40 ------- 0 3.0 0.0 11 96
+ 0.326427 0 2 tcp 1040 ------- 0 0.0 3.0 23 102
- 0.326427 0 2 tcp 1040 ------- 0 0.0 3.0 23 102
+ 0.326427 0 2 tcp 1040 ------- 0 0.0 3.0 24 103
r 0.327 1 2 cbr 500 ------- 0 1.0 3.1 63 98
+ 0.327 2 3 cbr 500 ------- 0 1.0 3.1 63 98
- 0.327733 2 3 cbr 500 ------- 0 1.0 3.1 43 65
r 0.328489 2 3 cbr 500 ------- 0 1.0 3.1 42 64
r 0.329956 3 2 ack 40 ------- 0 3.0 0.0 12 99
+ 0.329956 2 0 ack 40 ------- 0 3.0 0.0 12 99
- 0.329956 2 0 ack 40 ------- 0 3.0 0.0 12 99
+ 0.33 1 2 cbr 500 ------- 0 1.0 3.1 66 104
- 0.33 1 2 cbr 500 ------- 0 1.0 3.1 66 104
- 0.330587 0 2 tcp 1040 ------- 0 0.0 3.0 24 103
r 0.332 1 2 cbr 500 ------- 0 1.0 3.1 64 100
+ 0.332 2 3 cbr 500 ------- 0 1.0 3.1 64 100
- 0.332178 2 3 tcp 1040 ------- 0 0.0 3.0 14 63
+ 0.335 1 2 cbr 500 ------- 0 1.0 3.1 67 105
- 0.335 1 2 cbr 500 ------- 0 1.0 3.1 67 105
r 0.337 1 2 cbr 500 ------- 0 1.0 3.1 65 101
+ 0.337 2 3 cbr 500 ------- 0 1.0 3.1 65 101
r 0.337733 2 3 tcp 1040 ------- 0 0.0 3.0 13 62
+ 0.337733 3 2 ack 40 ------- 0 3.0 0.0 13 106
- 0.337733 3 2 ack 40 ------- 0 3.0 0.0 13 106
+ 0.34 1 2 cbr 500 ------- 0 1.0 3.1 68 107
- 0.34 1 2 cbr 500 ------- 0 1.0 3.1 68 107
r 0.340116 2 0 ack 40 ------- 0 3.0 0.0 12 99
+ 0.340116 0 2 tcp 1040 ------- 0 0.0 3.0 25 108
- 0.340116 0 2 tcp 1040 ------- 0 0.0 3.0 25 108
+ 0.340116 0 2 tcp 1040 ------- 0 0.0 3.0 26 109
r 0.340587 0 2 tcp 1040 ------- 0 0.0 3.0 23 102
+ 0.340587 2 3 tcp 1040 ------- 0 0.0 3.0 23 102
- 0.341422 2 3 cbr 500 ------- 0 1.0 3.1 44 66
r 0.342 1 2 cbr 500 ------- 0 1.0 3.1 66 104
+ 0.342 2 3 cbr 500 ------- 0 1.0 3.1 66 104
r 0.342178 2 3 cbr 500 ------- 0 1.0 3.1 43 65
- 0.344276 0 2 tcp 1040 ------- 0 0.0 3.0 26 109
r 0.344747 0 2 tcp 1040 ------- 0 0.0 3.0 24 103
+ 0.344747 2 3 tcp 1040 ------- 0 0.0 3.0 24 103
+ 0.345 1 2 cbr 500 ------- 0 1.0 3.1 69 110
- 0.345 1 2 cbr 500 ------- 0 1.0 3.1 69 110
- 0.345867 2 3 cbr 500 ------- 0 1.0 3.1 45 67
r 0.347 1 2 cbr 500 ------- 0 1.0 3.1 67 105
+ 0.347 2 3 cbr 500 ------- 0 1.0 3.1 67 105
r 0.348089 3 2 ack 40 ------- 0 3.0 0.0 13 106
+ 0.348089 2 0 ack 40 ------- 0 3.0 0.0 13 106
- 0.348089 2 0 ack 40 ------- 0 3.0 0.0 13 106
+ 0.35 1 2 cbr 500 ------- 0 1.0 3.1 70 111
- 0.35 1 2 cbr 500 ------- 0 1.0 3.1 70 111
- 0.350311 2 3 cbr 500 ------- 0 1.0 3.1 46 68
r 0.351422 2 3 tcp 1040 ------- 0 0.0 3.0 14 63
+ 0.351422 3 2 ack 40 ------- 0 3.0 0.0 14 112
- 0.351422 3 2 ack 40 ------- 0 3.0 0.0 14 112
r 0.352 1 2 cbr 500 ------- 0 1.0 3.1 68 107
+ 0.352 2 3 cbr 500 ------- 0 1.0 3.1 68 107
r 0.354276 0 2 tcp 1040 ------- 0 0.0 3.0 25 108
+ 0.354276 2 3 tcp 1040 ------- 0 0.0 3.0 25 108
- 0.354756 2 3 cbr 500 ------- 0 1.0 3.1 47 69
+ 0.355 1 2 cbr 500 ------- 0 1.0 3.1 71 113
- 0.355 1 2 cbr 500 ------- 0 1.0 3.1 71 113
r 0.355867 2 3 cbr 500 ------- 0 1.0 3.1 44 66
r 0.357 1 2 cbr 500 ------- 0 1.0 3.1 69 110
+ 0.357 2 3 cbr 500 ------- 0 1.0 3.1 69 110
r 0.358249 2 0 ack 40 ------- 0 3.0 0.0 13 106
+ 0.358249 0 2 tcp 1040 ------- 0 0.0 3.0 27 114
- 0.358249 0 2 tcp 1040 ------- 0 0.0 3.0 27 114
+ 0.358249 0 2 tcp 1040 ------- 0 0.0 3.0 28 115
r 0.358436 0 2 tcp 1040 ------- 0 0.0 3.0 26 109
+ 0.358436 2 3 tcp 1040 ------- 0 0.0 3.0 26 109
- 0.3592 2 3 cbr 500 ------- 0 1.0 3.1 48 70
+ 0.36 1 2 cbr 500 ------- 0 1.0 3.1 72 116
- 0.36 1 2 cbr 500 ------- 0 1.0 3.1 72 116
r 0.360311 2 3 cbr 500 ------- 0 1.0 3.1 45 67
r 0.361778 3 2 ack 40 ------- 0 3.0 0.0 14 112
+ 0.361778 2 0 ack 40 ------- 0 3.0 0.0 14 112
- 0.361778 2 0 ack 40 ------- 0 3.0 0.0 14 112
r 0.362 1 2 cbr 500 ------- 0 1.0 3.1 70 111
+ 0.362 2 3 cbr 500 ------- 0 1.0 3.1 70 111
- 0.362409 0 2 tcp 1040 ------- 0 0.0 3.0 28 115
- 0.363644 2 3 cbr 500 ------- 0 1.0 3.1 49 72
r 0.364756 2 3 cbr 500 ------- 0 1.0 3.1 46 68
+ 0.365 1 2 cbr 500 ------- 0 1.0 3.1 73 117
- 0.365 1 2 cbr 500 ------- 0 1.0 3.1 73 117
r 0.367 1 2 cbr 500 ------- 0 1.0 3.1 71 113
+ 0.367 2 3 cbr 500 ------- 0 1.0 3.1 71 113
- 0.368089 2 3 cbr 500 ------- 0 1.0 3.1 50 73
r 0.3692 2 3 cbr 500 ------- 0 1.0 3.1 47 69
+ 0.37 1 2 cbr 500 ------- 0 1.0 3.1 74 118
- 0.37 1 2 cbr 500 ------- 0 1.0 3.1 74 118
r 0.371938 2 0 ack 40 ------- 0 3.0 0.0 14 112
+ 0.371938 0 2 tcp 1040 ------- 0 0.0 3.0 29 119
- 0.371938 0 2 tcp 1040 ------- 0 0.0 3.0 29 119
+ 0.371938 0 2 tcp 1040 ------- 0 0.0 3.0 30 120
r 0.372 1 2 cbr 500 ------- 0 1.0 3.1 72 116
+ 0.372 2 3 cbr 500 ------- 0 1.0 3.1 72 116
r 0.372409 0 2 tcp 1040 ------- 0 0.0 3.0 27 114
+ 0.372409 2 3 tcp 1040 ------- 0 0.0 3.0 27 114
- 0.372533 2 3 cbr 500 ------- 0 1.0 3.1 51 75
r 0.373644 2 3 cbr 500 ------- 0 1.0 3.1 48 70
+ 0.375 1 2 cbr 500 ------- 0 1.0 3.1 75 121
- 0.375 1 2 cbr 500 ------- 0 1.0 3.1 75 121
- 0.376098 0 2 tcp 1040 ------- 0 0.0 3.0 30 120
r 0.376569 0 2 tcp 1040 ------- 0 0.0 3.0 28 115
+ 0.376569 2 3 tcp 1040 ------- 0 0.0 3.0 28 115
- 0.376978 2 3 cbr 500 ------- 0 1.0 3.1 52 76
r 0.377 1 2 cbr 500 ------- 0 1.0 3.1 73 117
+ 0.377 2 3 cbr 500 ------- 0 1.0 3.1 73 117
r 0.378089 2 3 cbr 500 ------- 0 1.0 3.1 49 72
+ 0.38 1 2 cbr 500 ------- 0 1.0 3.1 76 122
- 0.38 1 2 cbr 500 ------- 0 1.0 3.1 76 122
- 0.381422 2 3 tcp 1040 ------- 0 0.0 3.0 15 77
r 0.382 1 2 cbr 500 ------- 0 1.0 3.1 74 118
+ 0.382 2 3 cbr 500 ------- 0 1.0 3.1 74 118
r 0.382533 2 3 cbr 500 ------- 0 1.0 3.1 50 73
+ 0.385 1 2 cbr 500 ------- 0 1.0 3.1 77 123
- 0.385 1 2 cbr 500 ------- 0 1.0 3.1 77 123
r 0.386098 0 2 tcp 1040 ------- 0 0.0 3.0 29 119
+ 0.386098 2 3 tcp 1040 ------- 0 0.0 3.0 29 119
r 0.386978 2 3 cbr 500 ------- 0 1.0 3.1 51 75
r 0.387 1 2 cbr 500 ------- 0 1.0 3.1 75 121
+ 0.387 2 3 cbr 500 ------- 0 1.0 3.1 75 121
+ 0.39 1 2 cbr 500 ------- 0 1.0 3.1 78 124
- 0.39 1 2 cbr 500 ------- 0 1.0 3.1 78 124
r 0.390258 0 2 tcp 1040 ------- 0 0.0 3.0 30 120
+ 0.390258 2 3 tcp 1040 ------- 0 0.0 3.0 30 120
- 0.390667 2 3 cbr 500 ------- 0 1.0 3.1 53 79
r 0.391422 2 3 cbr 500 ------- 0 1.0 3.1 52 76
r 0.392 1 2 cbr 500 ------- 0 1.0 3.1 76 122
+ 0.392 2 3 cbr 500 ------- 0 1.0 3.1 76 122