+ 0 1 2 cbr 210 ------- 0 1.0 3.1 0 0
- 0 1 2 cbr 210 ------- 0 1.0 3.1 0 0
+ 0 0 2 tcp 40 ------- 0 0.0 3.0 0 1
- 0 0 2 tcp 40 ------- 0 0.0 3.0 0 1
+ 0.00375 1 2 cbr 210 ------- 0 1.0 3.1 1 2
- 0.00375 1 2 cbr 210 ------- 0 1.0 3.1 1 2
+ 0.0075 1 2 cbr 210 ------- 0 1.0 3.1 2 3
- 0.0075 1 2 cbr 210 ------- 0 1.0 3.1 2 3
+ 0.01125 1 2 cbr 210 ------- 0 1.0 3.1 3 4
- 0.01125 1 2 cbr 210 ------- 0 1.0 3.1 3 4
+ 0.015 1 2 cbr 210 ------- 0 1.0 3.1 4 5
- 0.015 1 2 cbr 210 ------- 0 1.0 3.1 4 5
+ 0.01875 1 2 cbr 210 ------- 0 1.0 3.1 5 6
- 0.01875 1 2 cbr 210 ------- 0 1.0 3.1 5 6
r 0.02016 0 2 tcp 40 ------- 0 0.0 3.0 0 1
+ 0.02016 2 3 tcp 40 ------- 0 0.0 3.0 0 1
- 0.02016 2 3 tcp 40 ------- 0 0.0 3.0 0 1
r 0.02084 1 2 cbr 210 ------- 0 1.0 3.1 0 0
+ 0.02084 2 3 cbr 210 ------- 0 1.0 3.1 0 0
- 0.02084 2 3 cbr 210 ------- 0 1.0 3.1 0 0
+ 0.0225 1 2 cbr 210 ------- 0 1.0 3.1 6 7
- 0.0225 1 2 cbr 210 ------- 0 1.0 3.1 6 7
r 0.02459 1 2 cbr 210 ------- 0 1.0 3.1 1 2
+ 0.02459 2 3 cbr 210 ------- 0 1.0 3.1 1 2
- 0.02459 2 3 cbr 210 ------- 0 1.0 3.1 1 2
+ 0.02625 1 2 cbr 210 ------- 0 1.0 3.1 7 8
- 0.02625 1 2 cbr 210 ------- 0 1.0 3.1 7 8
r 0.02834 1 2 cbr 210 ------- 0 1.0 3.1 2 3
+ 0.02834 2 3 cbr 210 ------- 0 1.0 3.1 2 3
- 0.02834 2 3 cbr 210 ------- 0 1.0 3.1 2 3
+ 0.03 1 2 cbr 210 ------- 0 1.0 3.1 8 9
- 0.03 1 2 cbr 210 ------- 0 1.0 3.1 8 9
r 0.03209 1 2 cbr 210 ------- 0 1.0 3.1 3 4
+ 0.03209 2 3 cbr 210 ------- 0 1.0 3.1 3 4
- 0.03209 2 3 cbr 210 ------- 0 1.0 3.1 3 4
+ 0.03375 1 2 cbr 210 ------- 0 1.0 3.1 9 10
- 0.03375 1 2 cbr 210 ------- 0 1.0 3.1 9 10
r 0.03584 1 2 cbr 210 ------- 0 1.0 3.1 4 5
+ 0.03584 2 3 cbr 210 ------- 0 1.0 3.1 4 5
- 0.03584 2 3 cbr 210 ------- 0 1.0 3.1 4 5
+ 0.0375 1 2 cbr 210 ------- 0 1.0 3.1 10 11
- 0.0375 1 2 cbr 210 ------- 0 1.0 3.1 10 11
r 0.03959 1 2 cbr 210 ------- 0 1.0 3.1 5 6
+ 0.03959 2 3 cbr 210 ------- 0 1.0 3.1 5 6
- 0.03959 2 3 cbr 210 ------- 0 1.0 3.1 5 6
r 0.04032 2 3 tcp 40 ------- 0 0.0 3.0 0 1
+ 0.04032 3 2 ack 40 ------- 0 3.0 0.0 0 12
- 0.04032 3 2 ack 40 ------- 0 3.0 0.0 0 12
+ 0.04125 1 2 cbr 210 ------- 0 1.0 3.1 11 13
- 0.04125 1 2 cbr 210 ------- 0 1.0 3.1 11 13
r 0.04168 2 3 cbr 210 ------- 0 1.0 3.1 0 0
r 0.04334 1 2 cbr 210 ------- 0 1.0 3.1 6 7
+ 0.04334 2 3 cbr 210 ------- 0 1.0 3.1 6 7
- 0.04334 2 3 cbr 210 ------- 0 1.0 3.1 6 7
+ 0.045 1 2 cbr 210 ------- 0 1.0 3.1 12 14
- 0.045 1 2 cbr 210 ------- 0 1.0 3.1 12 14
r 0.04543 2 3 cbr 210 ------- 0 1.0 3.1 1 2
r 0.04709 1 2 cbr 210 ------- 0 1.0 3.1 7 8
+ 0.04709 2 3 cbr 210 ------- 0 1.0 3.1 7 8
- 0.04709 2 3 cbr 210 ------- 0 1.0 3.1 7 8
+ 0.04875 1 2 cbr 210 ------- 0 1.0 3.1 13 15
- 0.04875 1 2 cbr 210 ------- 0 1.0 3.1 13 15
r 0.04918 2 3 cbr 210 ------- 0 1.0 3.1 2 3
r 0.05084 1 2 cbr 210 ------- 0 1.0 3.1 8 9
+ 0.05084 2 3 cbr 210 ------- 0 1.0 3.1 8 9
- 0.05084 2 3 cbr 210 ------- 0 1.0 3.1 8 9
+ 0.0525 1 2 cbr 210 ------- 0 1.0 3.1 14 16
- 0.0525 1 2 cbr 210 ------- 0 1.0 3.1 14 16
r 0.05293 2 3 cbr 210 ------- 0 1.0 3.1 3 4
r 0.05459 1 2 cbr 210 ------- 0 1.0 3.1 9 10
+ 0.05459 2 3 cbr 210 ------- 0 1.0 3.1 9 10
- 0.05459 2 3 cbr 210 ------- 0 1.0 3.1 9 10
+ 0.05625 1 2 cbr 210 ------- 0 1.0 3.1 15 17
- 0.05625 1 2 cbr 210 ------- 0 1.0 3.1 15 17
r 0.05668 2 3 cbr 210 ------- 0 1.0 3.1 4 5
r 0.05834 1 2 cbr 210 ------- 0 1.0 3.1 10 11
+ 0.05834 2 3 cbr 210 ------- 0 1.0 3.1 10 11
- 0.05834 2 3 cbr 210 ------- 0 1.0 3.1 10 11
+ 0.06 1 2 cbr 210 ------- 0 1.0 3.1 16 18
- 0.06 1 2 cbr 210 ------- 0 1.0 3.1 16 18
r 0.06043 2 3 cbr 210 ------- 0 1.0 3.1 5 6
r 0.06048 3 2 ack 40 ------- 0 3.0 0.0 0 12
+ 0.06048 2 0 ack 40 ------- 0 3.0 0.0 0 12
- 0.06048 2 0 ack 40 ------- 0 3.0 0.0 0 12
r 0.06209 1 2 cbr 210 ------- 0 1.0 3.1 11 13
+ 0.06209 2 3 cbr 210 ------- 0 1.0 3.1 11 13
- 0.06209 2 3 cbr 210 ------- 0 1.0 3.1 11 13
+ 0.06375 1 2 cbr 210 ------- 0 1.0 3.1 17 19
- 0.06375 1 2 cbr 210 ------- 0 1.0 3.1 17 19
r 0.06418 2 3 cbr 210 ------- 0 1.0 3.1 6 7
r 0.06584 1 2 cbr 210 ------- 0 1.0 3.1 12 14
+ 0.06584 2 3 cbr 210 ------- 0 1.0 3.1 12 14
- 0.06584 2 3 cbr 210 ------- 0 1.0 3.1 12 14
+ 0.0675 1 2 cbr 210 ------- 0 1.0 3.1 18 20
- 0.0675 1 2 cbr 210 ------- 0 1.0 3.1 18 20
r 0.06793 2 3 cbr 210 ------- 0 1.0 3.1 7 8
r 0.06959 1 2 cbr 210 ------- 0 1.0 3.1 13 15
+ 0.06959 2 3 cbr 210 ------- 0 1.0 3.1 13 15
- 0.06959 2 3 cbr 210 ------- 0 1.0 3.1 13 15
+ 0.07125 1 2 cbr 210 ------- 0 1.0 3.1 19 21
- 0.07125 1 2 cbr 210 ------- 0 1.0 3.1 19 21
r 0.07168 2 3 cbr 210 ------- 0 1.0 3.1 8 9
r 0.07334 1 2 cbr 210 ------- 0 1.0 3.1 14 16
+ 0.07334 2 3 cbr 210 ------- 0 1.0 3.1 14 16
- 0.07334 2 3 cbr 210 ------- 0 1.0 3.1 14 16
+ 0.075 1 2 cbr 210 ------- 0 1.0 3.1 20 22
- 0.075 1 2 cbr 210 ------- 0 1.0 3.1 20 22
r 0.07543 2 3 cbr 210 ------- 0 1.0 3.1 9 10
r 0.07709 1 2 cbr 210 ------- 0 1.0 3.1 15 17
+ 0.07709 2 3 cbr 210 ------- 0 1.0 3.1 15 17
- 0.07709 2 3 cbr 210 ------- 0 1.0 3.1 15 17
+ 0.07875 1 2 cbr 210 ------- 0 1.0 3.1 21 23
- 0.07875 1 2 cbr 210 ------- 0 1.0 3.1 21 23
r 0.07918 2 3 cbr 210 ------- 0 1.0 3.1 10 11
r 0.08064 2 0 ack 40 ------- 0 3.0 0.0 0 12
+ 0.08064 0 2 tcp 1040 ------- 0 0.0 3.0 1 24
- 0.08064 0 2 tcp 1040 ------- 0 0.0 3.0 1 24
+ 0.08064 0 2 tcp 1040 ------- 0 0.0 3.0 2 25
r 0.08084 1 2 cbr 210 ------- 0 1.0 3.1 16 18
+ 0.08084 2 3 cbr 210 ------- 0 1.0 3.1 16 18
- 0.08084 2 3 cbr 210 ------- 0 1.0 3.1 16 18
+ 0.0825 1 2 cbr 210 ------- 0 1.0 3.1 22 26
- 0.0825 1 2 cbr 210 ------- 0 1.0 3.1 22 26
r 0.08293 2 3 cbr 210 ------- 0 1.0 3.1 11 13
r 0.08459 1 2 cbr 210 ------- 0 1.0 3.1 17 19
+ 0.08459 2 3 cbr 210 ------- 0 1.0 3.1 17 19
- 0.08459 2 3 cbr 210 ------- 0 1.0 3.1 17 19
- 0.0848 0 2 tcp 1040 ------- 0 0.0 3.0 2 25
+ 0.08625 1 2 cbr 210 ------- 0 1.0 3.1 23 27
- 0.08625 1 2 cbr 210 ------- 0 1.0 3.1 23 27
r 0.08668 2 3 cbr 210 ------- 0 1.0 3.1 12 14
r 0.08834 1 2 cbr 210 ------- 0 1.0 3.1 18 20
+ 0.08834 2 3 cbr 210 ------- 0 1.0 3.1 18 20
- 0.08834 2 3 cbr 210 ------- 0 1.0 3.1 18 20
+ 0.09 1 2 cbr 210 ------- 0 1.0 3.1 24 28
- 0.09 1 2 cbr 210 ------- 0 1.0 3.1 24 28
r 0.09043 2 3 cbr 210 ------- 0 1.0 3.1 13 15
r 0.09209 1 2 cbr 210 ------- 0 1.0 3.1 19 21
+ 0.09209 2 3 cbr 210 ------- 0 1.0 3.1 19 21
- 0.09209 2 3 cbr 210 ------- 0 1.0 3.1 19 21
+ 0.09375 1 2 cbr 210 ------- 0 1.0 3.1 25 29
- 0.09375 1 2 cbr 210 ------- 0 1.0 3.1 25 29
r 0.09418 2 3 cbr 210 ------- 0 1.0 3.1 14 16
r 0.09584 1 2 cbr 210 ------- 0 1.0 3.1 20 22
+ 0.09584 2 3 cbr 210 ------- 0 1.0 3.1 20 22
- 0.09584 2 3 cbr 210 ------- 0 1.0 3.1 20 22
+ 0.0975 1 2 cbr 210 ------- 0 1.0 3.1 26 30
- 0.0975 1 2 cbr 210 ------- 0 1.0 3.1 26 30
r 0.09793 2 3 cbr 210 ------- 0 1.0 3.1 15 17
r 0.09959 1 2 cbr 210 ------- 0 1.0 3.1 21 23
+ 0.09959 2 3 cbr 210 ------- 0 1.0 3.1 21 23
- 0.09959 2 3 cbr 210 ------- 0 1.0 3.1 21 23
+ 0.10125 1 2 cbr 210 ------- 0 1.0 3.1 27 31
- 0.10125 1 2 cbr 210 ------- 0 1.0 3.1 27 31
r 0.10168 2 3 cbr 210 ------- 0 1.0 3.1 16 18
r 0.10334 1 2 cbr 210 ------- 0 1.0 3.1 22 26
+ 0.10334 2 3 cbr 210 ------- 0 1.0 3.1 22 26
- 0.10334 2 3 cbr 210 ------- 0 1.0 3.1 22 26
r 0.1048 0 2 tcp 1040 ------- 0 0.0 3.0 1 24
+ 0.1048 2 3 tcp 1040 ------- 0 0.0 3.0 1 24
- 0.1048 2 3 tcp 1040 ------- 0 0.0 3.0 1 24
+ 0.105 1 2 cbr 210 ------- 0 1.0 3.1 28 32
- 0.105 1 2 cbr 210 ------- 0 1.0 3.1 28 32
r 0.10543 2 3 cbr 210 ------- 0 1.0 3.1 17 19
r 0.10709 1 2 cbr 210 ------- 0 1.0 3.1 23 27
+ 0.10709 2 3 cbr 210 ------- 0 1.0 3.1 23 27
+ 0.10875 1 2 cbr 210 ------- 0 1.0 3.1 29 33
- 0.10875 1 2 cbr 210 ------- 0 1.0 3.1 29 33
r 0.10896 0 2 tcp 1040 ------- 0 0.0 3.0 2 25
+ 0.10896 2 3 tcp 1040 ------- 0 0.0 3.0 2 25
- 0.10896 2 3 cbr 210 ------- 0 1.0 3.1 23 27
r 0.10918 2 3 cbr 210 ------- 0 1.0 3.1 18 20
- 0.1098 2 3 tcp 1040 ------- 0 0.0 3.0 2 25
r 0.11084 1 2 cbr 210 ------- 0 1.0 3.1 24 28
+ 0.11084 2 3 cbr 210 ------- 0 1.0 3.1 24 28
+ 0.1125 1 2 cbr 210 ------- 0 1.0 3.1 30 34
- 0.1125 1 2 cbr 210 ------- 0 1.0 3.1 30 34
r 0.11293 2 3 cbr 210 ------- 0 1.0 3.1 19 21
- 0.11396 2 3 cbr 210 ------- 0 1.0 3.1 24 28
r 0.11459 1 2 cbr 210 ------- 0 1.0 3.1 25 29
+ 0.11459 2 3 cbr 210 ------- 0 1.0 3.1 25 29
- 0.1148 2 3 cbr 210 ------- 0 1.0 3.1 25 29
+ 0.11625 1 2 cbr 210 ------- 0 1.0 3.1 31 35
- 0.11625 1 2 cbr 210 ------- 0 1.0 3.1 31 35
r 0.11668 2 3 cbr 210 ------- 0 1.0 3.1 20 22
r 0.11834 1 2 cbr 210 ------- 0 1.0 3.1 26 30
+ 0.11834 2 3 cbr 210 ------- 0 1.0 3.1 26 30
- 0.11834 2 3 cbr 210 ------- 0 1.0 3.1 26 30
+ 0.12 1 2 cbr 210 ------- 0 1.0 3.1 32 36
- 0.12 1 2 cbr 210 ------- 0 1.0 3.1 32 36
r 0.12043 2 3 cbr 210 ------- 0 1.0 3.1 21 23
r 0.12209 1 2 cbr 210 ------- 0 1.0 3.1 27 31
+ 0.12209 2 3 cbr 210 ------- 0 1.0 3.1 27 31
- 0.12209 2 3 cbr 210 ------- 0 1.0 3.1 27 31
+ 0.12375 1 2 cbr 210 ------- 0 1.0 3.1 33 37
- 0.12375 1 2 cbr 210 ------- 0 1.0 3.1 33 37
r 0.12418 2 3 cbr 210 ------- 0 1.0 3.1 22 26
r 0.12584 1 2 cbr 210 ------- 0 1.0 3.1 28 32
+ 0.12584 2 3 cbr 210 ------- 0 1.0 3.1 28 32
- 0.12584 2 3 cbr 210 ------- 0 1.0 3.1 28 32
+ 0.1275 1 2 cbr 210 ------- 0 1.0 3.1 34 38
- 0.1275 1 2 cbr 210 ------- 0 1.0 3.1 34 38
r 0.12896 2 3 tcp 1040 ------- 0 0.0 3.0 1 24
+ 0.12896 3 2 ack 40 ------- 0 3.0 0.0 1 39
- 0.12896 3 2 ack 40 ------- 0 3.0 0.0 1 39
r 0.12959 1 2 cbr 210 ------- 0 1.0 3.1 29 33
+ 0.12959 2 3 cbr 210 ------- 0 1.0 3.1 29 33
- 0.12959 2 3 cbr 210 ------- 0 1.0 3.1 29 33
r 0.1298 2 3 cbr 210 ------- 0 1.0 3.1 23 27
+ 0.13125 1 2 cbr 210 ------- 0 1.0 3.1 35 40
- 0.13125 1 2 cbr 210 ------- 0 1.0 3.1 35 40
r 0.13334 1 2 cbr 210 ------- 0 1.0 3.1 30 34
+ 0.13334 2 3 cbr 210 ------- 0 1.0 3.1 30 34
- 0.13334 2 3 cbr 210 ------- 0 1.0 3.1 30 34
r 0.13396 2 3 tcp 1040 ------- 0 0.0 3.0 2 25
+ 0.13396 3 2 ack 40 ------- 0 3.0 0.0 2 41
- 0.13396 3 2 ack 40 ------- 0 3.0 0.0 2 41
r 0.1348 2 3 cbr 210 ------- 0 1.0 3.1 24 28
+ 0.135 1 2 cbr 210 ------- 0 1.0 3.1 36 42
- 0.135 1 2 cbr 210 ------- 0 1.0 3.1 36 42
r 0.13564 2 3 cbr 210 ------- 0 1.0 3.1 25 29
r 0.13709 1 2 cbr 210 ------- 0 1.0 3.1 31 35
+ 0.13709 2 3 cbr 210 ------- 0 1.0 3.1 31 35
- 0.13709 2 3 cbr 210 ------- 0 1.0 3.1 31 35
+ 0.13875 1 2 cbr 210 ------- 0 1.0 3.1 37 43
- 0.13875 1 2 cbr 210 ------- 0 1.0 3.1 37 43
r 0.13918 2 3 cbr 210 ------- 0 1.0 3.1 26 30
r 0.14084 1 2 cbr 210 ------- 0 1.0 3.1 32 36
+ 0.14084 2 3 cbr 210 ------- 0 1.0 3.1 32 36
- 0.14084 2 3 cbr 210 ------- 0 1.0 3.1 32 36
+ 0.1425 1 2 cbr 210 ------- 0 1.0 3.1 38 44
- 0.1425 1 2 cbr 210 ------- 0 1.0 3.1 38 44
r 0.14293 2 3 cbr 210 ------- 0 1.0 3.1 27 31
r 0.14459 1 2 cbr 210 ------- 0 1.0 3.1 33 37
+ 0.14459 2 3 cbr 210 ------- 0 1.0 3.1 33 37
- 0.14459 2 3 cbr 210 ------- 0 1.0 3.1 33 37
+ 0.14625 1 2 cbr 210 ------- 0 1.0 3.1 39 45
- 0.14625 1 2 cbr 210 ------- 0 1.0 3.1 39 45
r 0.14668 2 3 cbr 210 ------- 0 1.0 3.1 28 32
r 0.14834 1 2 cbr 210 ------- 0 1.0 3.1 34 38
+ 0.14834 2 3 cbr 210 ------- 0 1.0 3.1 34 38
- 0.14834 2 3 cbr 210 ------- 0 1.0 3.1 34 38
r 0.14912 3 2 ack 40 ------- 0 3.0 0.0 1 39
+ 0.14912 2 0 ack 40 ------- 0 3.0 0.0 1 39
- 0.14912 2 0 ack 40 ------- 0 3.0 0.0 1 39
+ 0.15 1 2 cbr 210 ------- 0 1.0 3.1 40 46
- 0.15 1 2 cbr 210 ------- 0 1.0 3.1 40 46
r 0.15043 2 3 cbr 210 ------- 0 1.0 3.1 29 33
r 0.15209 1 2 cbr 210 ------- 0 1.0 3.1 35 40
+ 0.15209 2 3 cbr 210 ------- 0 1.0 3.1 35 40
- 0.15209 2 3 cbr 210 ------- 0 1.0 3.1 35 40
+ 0.15375 1 2 cbr 210 ------- 0 1.0 3.1 41 47
- 0.15375 1 2 cbr 210 ------- 0 1.0 3.1 41 47
r 0.15412 3 2 ack 40 ------- 0 3.0 0.0 2 41
+ 0.15412 2 0 ack 40 ------- 0 3.0 0.0 2 41
- 0.15412 2 0 ack 40 ------- 0 3.0 0.0 2 41
r 0.15418 2 3 cbr 210 ------- 0 1.0 3.1 30 34
r 0.15584 1 2 cbr 210 ------- 0 1.0 3.1 36 42
+ 0.15584 2 3 cbr 210 ------- 0 1.0 3.1 36 42
- 0.15584 2 3 cbr 210 ------- 0 1.0 3.1 36 42
+ 0.1575 1 2 cbr 210 ------- 0 1.0 3.1 42 48
- 0.1575 1 2 cbr 210 ------- 0 1.0 3.1 42 48
r 0.15793 2 3 cbr 210 ------- 0 1.0 3.1 31 35
r 0.15959 1 2 cbr 210 ------- 0 1.0 3.1 37 43
+ 0.15959 2 3 cbr 210 ------- 0 1.0 3.1 37 43
- 0.15959 2 3 cbr 210 ------- 0 1.0 3.1 37 43
+ 0.16125 1 2 cbr 210 ------- 0 1.0 3.1 43 49
- 0.16125 1 2 cbr 210 ------- 0 1.0 3.1 43 49
r 0.16168 2 3 cbr 210 ------- 0 1.0 3.1 32 36
r 0.16334 1 2 cbr 210 ------- 0 1.0 3.1 38 44
+ 0.16334 2 3 cbr 210 ------- 0 1.0 3.1 38 44
- 0.16334 2 3 cbr 210 ------- 0 1.0 3.1 38 44
+ 0.165 1 2 cbr 210 ------- 0 1.0 3.1 44 50
- 0.165 1 2 cbr 210 ------- 0 1.0 3.1 44 50
r 0.16543 2 3 cbr 210 ------- 0 1.0 3.1 33 37
r 0.16709 1 2 cbr 210 ------- 0 1.0 3.1 39 45
+ 0.16709 2 3 cbr 210 ------- 0 1.0 3.1 39 45
- 0.16709 2 3 cbr 210 ------- 0 1.0 3.1 39 45
+ 0.16875 1 2 cbr 210 ------- 0 1.0 3.1 45 51
- 0.16875 1 2 cbr 210 ------- 0 1.0 3.1 45 51
r 0.16918 2 3 cbr 210 ------- 0 1.0 3.1 34 38
r 0.16928 2 0 ack 40 ------- 0 3.0 0.0 1 39
+ 0.16928 0 2 tcp 1040 ------- 0 0.0 3.0 3 52
- 0.16928 0 2 tcp 1040 ------- 0 0.0 3.0 3 52
+ 0.16928 0 2 tcp 1040 ------- 0 0.0 3.0 4 53
r 0.17084 1 2 cbr 210 ------- 0 1.0 3.1 40 46
+ 0.17084 2 3 cbr 210 ------- 0 1.0 3.1 40 46
- 0.17084 2 3 cbr 210 ------- 0 1.0 3.1 40 46
+ 0.1725 1 2 cbr 210 ------- 0 1.0 3.1 46 54
- 0.1725 1 2 cbr 210 ------- 0 1.0 3.1 46 54
r 0.17293 2 3 cbr 210 ------- 0 1.0 3.1 35 40
- 0.17344 0 2 tcp 1040 ------- 0 0.0 3.0 4 53
r 0.17428 2 0 ack 40 ------- 0 3.0 0.0 2 41
+ 0.17428 0 2 tcp 1040 ------- 0 0.0 3.0 5 55
+ 0.17428 0 2 tcp 1040 ------- 0 0.0 3.0 6 56
r 0.17459 1 2 cbr 210 ------- 0 1.0 3.1 41 47
+ 0.17459 2 3 cbr 210 ------- 0 1.0 3.1 41 47
- 0.17459 2 3 cbr 210 ------- 0 1.0 3.1 41 47
+ 0.17625 1 2 cbr 210 ------- 0 1.0 3.1 47 57
- 0.17625 1 2 cbr 210 ------- 0 1.0 3.1 47 57
r 0.17668 2 3 cbr 210 ------- 0 1.0 3.1 36 42
- 0.1776 0 2 tcp 1040 ------- 0 0.0 3.0 5 55
r 0.17834 1 2 cbr 210 ------- 0 1.0 3.1 42 48
+ 0.17834 2 3 cbr 210 ------- 0 1.0 3.1 42 48
- 0.17834 2 3 cbr 210 ------- 0 1.0 3.1 42 48
+ 0.18 1 2 cbr 210 ------- 0 1.0 3.1 48 58
- 0.18 1 2 cbr 210 ------- 0 1.0 3.1 48 58
r 0.18043 2 3 cbr 210 ------- 0 1.0 3.1 37 43
- 0.18176 0 2 tcp 1040 ------- 0 0.0 3.0 6 56
r 0.18209 1 2 cbr 210 ------- 0 1.0 3.1 43 49
+ 0.18209 2 3 cbr 210 ------- 0 1.0 3.1 43 49
- 0.18209 2 3 cbr 210 ------- 0 1.0 3.1 43 49
+ 0.18375 1 2 cbr 210 ------- 0 1.0 3.1 49 59
- 0.18375 1 2 cbr 210 ------- 0 1.0 3.1 49 59
r 0.18418 2 3 cbr 210 ------- 0 1.0 3.1 38 44
r 0.18584 1 2 cbr 210 ------- 0 1.0 3.1 44 50
+ 0.18584 2 3 cbr 210 ------- 0 1.0 3.1 44 50
- 0.18584 2 3 cbr 210 ------- 0 1.0 3.1 44 50
+ 0.1875 1 2 cbr 210 ------- 0 1.0 3.1 50 60
- 0.1875 1 2 cbr 210 ------- 0 1.0 3.1 50 60
r 0.18793 2 3 cbr 210 ------- 0 1.0 3.1 39 45
r 0.18959 1 2 cbr 210 ------- 0 1.0 3.1 45 51
+ 0.18959 2 3 cbr 210 ------- 0 1.0 3.1 45 51
- 0.18959 2 3 cbr 210 ------- 0 1.0 3.1 45 51
+ 0.19125 1 2 cbr 210 ------- 0 1.0 3.1 51 61
- 0.19125 1 2 cbr 210 ------- 0 1.0 3.1 51 61
r 0.19168 2 3 cbr 210 ------- 0 1.0 3.1 40 46
r 0.19334 1 2 cbr 210 ------- 0 1.0 3.1 46 54
+ 0.19334 2 3 cbr 210 ------- 0 1.0 3.1 46 54
- 0.19334 2 3 cbr 210 ------- 0 1.0 3.1 46 54
r 0.19344 0 2 tcp 1040 ------- 0 0.0 3.0 3 52
+ 0.19344 2 3 tcp 1040 ------- 0 0.0 3.0 3 52
- 0.19418 2 3 tcp 1040 ------- 0 0.0 3.0 3 52
+ 0.195 1 2 cbr 210 ------- 0 1.0 3.1 52 62
- 0.195 1 2 cbr 210 ------- 0 1.0 3.1 52 62
r 0.19543 2 3 cbr 210 ------- 0 1.0 3.1 41 47
r 0.19709 1 2 cbr 210 ------- 0 1.0 3.1 47 57
+ 0.19709 2 3 cbr 210 ------- 0 1.0 3.1 47 57
r 0.1976 0 2 tcp 1040 ------- 0 0.0 3.0 4 53
+ 0.1976 2 3 tcp 1040 ------- 0 0.0 3.0 4 53
- 0.19834 2 3 cbr 210 ------- 0 1.0 3.1 47 57
+ 0.19875 1 2 cbr 210 ------- 0 1.0 3.1 53 63
- 0.19875 1 2 cbr 210 ------- 0 1.0 3.1 53 63
r 0.19918 2 3 cbr 210 ------- 0 1.0 3.1 42 48
- 0.19918 2 3 tcp 1040 ------- 0 0.0 3.0 4 53
r 0.20084 1 2 cbr 210 ------- 0 1.0 3.1 48 58
+ 0.20084 2 3 cbr 210 ------- 0 1.0 3.1 48 58
r 0.20176 0 2 tcp 1040 ------- 0 0.0 3.0 5 55
+ 0.20176 2 3 tcp 1040 ------- 0 0.0 3.0 5 55
+ 0.2025 1 2 cbr 210 ------- 0 1.0 3.1 54 64
- 0.2025 1 2 cbr 210 ------- 0 1.0 3.1 54 64
r 0.20293 2 3 cbr 210 ------- 0 1.0 3.1 43 49
- 0.20334 2 3 cbr 210 ------- 0 1.0 3.1 48 58
- 0.20418 2 3 tcp 1040 ------- 0 0.0 3.0 5 55
r 0.20459 1 2 cbr 210 ------- 0 1.0 3.1 49 59
+ 0.20459 2 3 cbr 210 ------- 0 1.0 3.1 49 59
r 0.20592 0 2 tcp 1040 ------- 0 0.0 3.0 6 56
+ 0.20592 2 3 tcp 1040 ------- 0 0.0 3.0 6 56
+ 0.20625 1 2 cbr 210 ------- 0 1.0 3.1 55 65
- 0.20625 1 2 cbr 210 ------- 0 1.0 3.1 55 65
r 0.20668 2 3 cbr 210 ------- 0 1.0 3.1 44 50
r 0.20834 1 2 cbr 210 ------- 0 1.0 3.1 50 60
+ 0.20834 2 3 cbr 210 ------- 0 1.0 3.1 50 60
- 0.20834 2 3 cbr 210 ------- 0 1.0 3.1 49 59
- 0.20918 2 3 tcp 1040 ------- 0 0.0 3.0 6 56
+ 0.21 1 2 cbr 210 ------- 0 1.0 3.1 56 66
- 0.21 1 2 cbr 210 ------- 0 1.0 3.1 56 66
r 0.21043 2 3 cbr 210 ------- 0 1.0 3.1 45 51
r 0.21209 1 2 cbr 210 ------- 0 1.0 3.1 51 61
+ 0.21209 2 3 cbr 210 ------- 0 1.0 3.1 51 61
- 0.21334 2 3 cbr 210 ------- 0 1.0 3.1 50 60
+ 0.21375 1 2 cbr 210 ------- 0 1.0 3.1 57 67
- 0.21375 1 2 cbr 210 ------- 0 1.0 3.1 57 67
r 0.21418 2 3 cbr 210 ------- 0 1.0 3.1 46 54
- 0.21418 2 3 cbr 210 ------- 0 1.0 3.1 51 61
r 0.21584 1 2 cbr 210 ------- 0 1.0 3.1 52 62
+ 0.21584 2 3 cbr 210 ------- 0 1.0 3.1 52 62
- 0.21584 2 3 cbr 210 ------- 0 1.0 3.1 52 62
+ 0.2175 1 2 cbr 210 ------- 0 1.0 3.1 58 68
- 0.2175 1 2 cbr 210 ------- 0 1.0 3.1 58 68
r 0.21834 2 3 tcp 1040 ------- 0 0.0 3.0 3 52
+ 0.21834 3 2 ack 40 ------- 0 3.0 0.0 3 69
- 0.21834 3 2 ack 40 ------- 0 3.0 0.0 3 69
r 0.21918 2 3 cbr 210 ------- 0 1.0 3.1 47 57
r 0.21959 1 2 cbr 210 ------- 0 1.0 3.1 53 63
+ 0.21959 2 3 cbr 210 ------- 0 1.0 3.1 53 63
- 0.21959 2 3 cbr 210 ------- 0 1.0 3.1 53 63
+ 0.22125 1 2 cbr 210 ------- 0 1.0 3.1 59 70
- 0.22125 1 2 cbr 210 ------- 0 1.0 3.1 59 70
r 0.22334 2 3 tcp 1040 ------- 0 0.0 3.0 4 53
+ 0.22334 3 2 ack 40 ------- 0 3.0 0.0 4 71
- 0.22334 3 2 ack 40 ------- 0 3.0 0.0 4 71
r 0.22334 1 2 cbr 210 ------- 0 1.0 3.1 54 64
+ 0.22334 2 3 cbr 210 ------- 0 1.0 3.1 54 64
- 0.22334 2 3 cbr 210 ------- 0 1.0 3.1 54 64
r 0.22418 2 3 cbr 210 ------- 0 1.0 3.1 48 58
+ 0.225 1 2 cbr 210 ------- 0 1.0 3.1 60 72
- 0.225 1 2 cbr 210 ------- 0 1.0 3.1 60 72
r 0.22709 1 2 cbr 210 ------- 0 1.0 3.1 55 65
+ 0.22709 2 3 cbr 210 ------- 0 1.0 3.1 55 65
- 0.22709 2 3 cbr 210 ------- 0 1.0 3.1 55 65
r 0.22834 2 3 tcp 1040 ------- 0 0.0 3.0 5 55
+ 0.22834 3 2 ack 40 ------- 0 3.0 0.0 5 73
- 0.22834 3 2 ack 40 ------- 0 3.0 0.0 5 73
+ 0.22875 1 2 cbr 210 ------- 0 1.0 3.1 61 74
- 0.22875 1 2 cbr 210 ------- 0 1.0 3.1 61 74
r 0.22918 2 3 cbr 210 ------- 0 1.0 3.1 49 59
r 0.23084 1 2 cbr 210 ------- 0 1.0 3.1 56 66
+ 0.23084 2 3 cbr 210 ------- 0 1.0 3.1 56 66
- 0.23084 2 3 cbr 210 ------- 0 1.0 3.1 56 66
+ 0.2325 1 2 cbr 210 ------- 0 1.0 3.1 62 75
- 0.2325 1 2 cbr 210 ------- 0 1.0 3.1 62 75
r 0.23334 2 3 tcp 1040 ------- 0 0.0 3.0 6 56
+ 0.23334 3 2 ack 40 ------- 0 3.0 0.0 6 76
- 0.23334 3 2 ack 40 ------- 0 3.0 0.0 6 76
r 0.23418 2 3 cbr 210 ------- 0 1.0 3.1 50 60
r 0.23459 1 2 cbr 210 ------- 0 1.0 3.1 57 67
+ 0.23459 2 3 cbr 210 ------- 0 1.0 3.1 57 67
- 0.23459 2 3 cbr 210 ------- 0 1.0 3.1 57 67
r 0.23502 2 3 cbr 210 ------- 0 1.0 3.1 51 61
+ 0.23625 1 2 cbr 210 ------- 0 1.0 3.1 63 77
- 0.23625 1 2 cbr 210 ------- 0 1.0 3.1 63 77
r 0.23668 2 3 cbr 210 ------- 0 1.0 3.1 52 62
r 0.23834 1 2 cbr 210 ------- 0 1.0 3.1 58 68
+ 0.23834 2 3 cbr 210 ------- 0 1.0 3.1 58 68
- 0.23834 2 3 cbr 210 ------- 0 1.0 3.1 58 68
r 0.2385 3 2 ack 40 ------- 0 3.0 0.0 3 69
+ 0.2385 2 0 ack 40 ------- 0 3.0 0.0 3 69
- 0.2385 2 0 ack 40 ------- 0 3.0 0.0 3 69
+ 0.24 1 2 cbr 210 ------- 0 1.0 3.1 64 78
- 0.24 1 2 cbr 210 ------- 0 1.0 3.1 64 78
r 0.24043 2 3 cbr 210 ------- 0 1.0 3.1 53 63
r 0.24209 1 2 cbr 210 ------- 0 1.0 3.1 59 70
+ 0.24209 2 3 cbr 210 ------- 0 1.0 3.1 59 70
- 0.24209 2 3 cbr 210 ------- 0 1.0 3.1 59 70
r 0.2435 3 2 ack 40 ------- 0 3.0 0.0 4 71
+ 0.2435 2 0 ack 40 ------- 0 3.0 0.0 4 71
- 0.2435 2 0 ack 40 ------- 0 3.0 0.0 4 71
+ 0.24375 1 2 cbr 210 ------- 0 1.0 3.1 65 79
- 0.24375 1 2 cbr 210 ------- 0 1.0 3.1 65 79
r 0.24418 2 3 cbr 210 ------- 0 1.0 3.1 54 64
r 0.24584 1 2 cbr 210 ------- 0 1.0 3.1 60 72
+ 0.24584 2 3 cbr 210 ------- 0 1.0 3.1 60 72
- 0.24584 2 3 cbr 210 ------- 0 1.0 3.1 60 72
+ 0.2475 1 2 cbr 210 ------- 0 1.0 3.1 66 80
- 0.2475 1 2 cbr 210 ------- 0 1.0 3.1 66 80
r 0.24793 2 3 cbr 210 ------- 0 1.0 3.1 55 65
r 0.2485 3 2 ack 40 ------- 0 3.0 0.0 5 73
+ 0.2485 2 0 ack 40 ------- 0 3.0 0.0 5 73
- 0.2485 2 0 ack 40 ------- 0 3.0 0.0 5 73
r 0.24959 1 2 cbr 210 ------- 0 1.0 3.1 61 74
+ 0.24959 2 3 cbr 210 ------- 0 1.0 3.1 61 74
- 0.24959 2 3 cbr 210 ------- 0 1.0 3.1 61 74
+ 0.25125 1 2 cbr 210 ------- 0 1.0 3.1 67 81
- 0.25125 1 2 cbr 210 ------- 0 1.0 3.1 67 81
r 0.25168 2 3 cbr 210 ------- 0 1.0 3.1 56 66
r 0.25334 1 2 cbr 210 ------- 0 1.0 3.1 62 75
+ 0.25334 2 3 cbr 210 ------- 0 1.0 3.1 62 75
- 0.25334 2 3 cbr 210 ------- 0 1.0 3.1 62 75
r 0.2535 3 2 ack 40 ------- 0 3.0 0.0 6 76
+ 0.2535 2 0 ack 40 ------- 0 3.0 0.0 6 76
- 0.2535 2 0 ack 40 ------- 0 3.0 0.0 6 76
+ 0.255 1 2 cbr 210 ------- 0 1.0 3.1 68 82
- 0.255 1 2 cbr 210 ------- 0 1.0 3.1 68 82
r 0.25543 2 3 cbr 210 ------- 0 1.0 3.1 57 67
r 0.25709 1 2 cbr 210 ------- 0 1.0 3.1 63 77
+ 0.25709 2 3 cbr 210 ------- 0 1.0 3.1 63 77
- 0.25709 2 3 cbr 210 ------- 0 1.0 3.1 63 77
r 0.25866 2 0 ack 40 ------- 0 3.0 0.0 3 69
+ 0.25866 0 2 tcp 1040 ------- 0 0.0 3.0 7 83
- 0.25866 0 2 tcp 1040 ------- 0 0.0 3.0 7 83
+ 0.25866 0 2 tcp 1040 ------- 0 0.0 3.0 8 84
+ 0.25875 1 2 cbr 210 ------- 0 1.0 3.1 69 85
- 0.25875 1 2 cbr 210 ------- 0 1.0 3.1 69 85
r 0.25918 2 3 cbr 210 ------- 0 1.0 3.1 58 68
r 0.26084 1 2 cbr 210 ------- 0 1.0 3.1 64 78
+ 0.26084 2 3 cbr 210 ------- 0 1.0 3.1 64 78
- 0.26084 2 3 cbr 210 ------- 0 1.0 3.1 64 78
+ 0.2625 1 2 cbr 210 ------- 0 1.0 3.1 70 86
- 0.2625 1 2 cbr 210 ------- 0 1.0 3.1 70 86
- 0.26282 0 2 tcp 1040 ------- 0 0.0 3.0 8 84
r 0.26293 2 3 cbr 210 ------- 0 1.0 3.1 59 70
r 0.26366 2 0 ack 40 ------- 0 3.0 0.0 4 71
+ 0.26366 0 2 tcp 1040 ------- 0 0.0 3.0 9 87
+ 0.26366 0 2 tcp 1040 ------- 0 0.0 3.0 10 88
r 0.26459 1 2 cbr 210 ------- 0 1.0 3.1 65 79
+ 0.26459 2 3 cbr 210 ------- 0 1.0 3.1 65 79
- 0.26459 2 3 cbr 210 ------- 0 1.0 3.1 65 79
+ 0.26625 1 2 cbr 210 ------- 0 1.0 3.1 71 89
- 0.26625 1 2 cbr 210 ------- 0 1.0 3.1 71 89
r 0.26668 2 3 cbr 210 ------- 0 1.0 3.1 60 72
- 0.26698 0 2 tcp 1040 ------- 0 0.0 3.0 9 87
r 0.26834 1 2 cbr 210 ------- 0 1.0 3.1 66 80
+ 0.26834 2 3 cbr 210 ------- 0 1.0 3.1 66 80
- 0.26834 2 3 cbr 210 ------- 0 1.0 3.1 66 80
r 0.26866 2 0 ack 40 ------- 0 3.0 0.0 5 73
+ 0.26866 0 2 tcp 1040 ------- 0 0.0 3.0 11 90
+ 0.26866 0 2 tcp 1040 ------- 0 0.0 3.0 12 91
+ 0.27 1 2 cbr 210 ------- 0 1.0 3.1 72 92
- 0.27 1 2 cbr 210 ------- 0 1.0 3.1 72 92
r 0.27043 2 3 cbr 210 ------- 0 1.0 3.1 61 74
- 0.27114 0 2 tcp 1040 ------- 0 0.0 3.0 10 88
r 0.27209 1 2 cbr 210 ------- 0 1.0 3.1 67 81
+ 0.27209 2 3 cbr 210 ------- 0 1.0 3.1 67 81
- 0.27209 2 3 cbr 210 ------- 0 1.0 3.1 67 81
r 0.27366 2 0 ack 40 ------- 0 3.0 0.0 6 76
+ 0.27366 0 2 tcp 1040 ------- 0 0.0 3.0 13 93
+ 0.27366 0 2 tcp 1040 ------- 0 0.0 3.0 14 94
+ 0.27375 1 2 cbr 210 ------- 0 1.0 3.1 73 95
- 0.27375 1 2 cbr 210 ------- 0 1.0 3.1 73 95
r 0.27418 2 3 cbr 210 ------- 0 1.0 3.1 62 75
- 0.2753 0 2 tcp 1040 ------- 0 0.0 3.0 11 90
r 0.27584 1 2 cbr 210 ------- 0 1.0 3.1 68 82
+ 0.27584 2 3 cbr 210 ------- 0 1.0 3.1 68 82
- 0.27584 2 3 cbr 210 ------- 0 1.0 3.1 68 82
+ 0.2775 1 2 cbr 210 ------- 0 1.0 3.1 74 96
- 0.2775 1 2 cbr 210 ------- 0 1.0 3.1 74 96
r 0.27793 2 3 cbr 210 ------- 0 1.0 3.1 63 77
- 0.27946 0 2 tcp 1040 ------- 0 0.0 3.0 12 91
r 0.27959 1 2 cbr 210 ------- 0 1.0 3.1 69 85
+ 0.27959 2 3 cbr 210 ------- 0 1.0 3.1 69 85
- 0.27959 2 3 cbr 210 ------- 0 1.0 3.1 69 85
+ 0.28125 1 2 cbr 210 ------- 0 1.0 3.1 75 97
- 0.28125 1 2 cbr 210 ------- 0 1.0 3.1 75 97
r 0.28168 2 3 cbr 210 ------- 0 1.0 3.1 64 78
r 0.28282 0 2 tcp 1040 ------- 0 0.0 3.0 7 83
+ 0.28282 2 3 tcp 1040 ------- 0 0.0 3.0 7 83
- 0.28282 2 3 tcp 1040 ------- 0 0.0 3.0 7 83
r 0.28334 1 2 cbr 210 ------- 0 1.0 3.1 70 86
+ 0.28334 2 3 cbr 210 ------- 0 1.0 3.1 70 86
- 0.28362 0 2 tcp 1040 ------- 0 0.0 3.0 13 93
+ 0.285 1 2 cbr 210 ------- 0 1.0 3.1 76 98
- 0.285 1 2 cbr 210 ------- 0 1.0 3.1 76 98
r 0.28543 2 3 cbr 210 ------- 0 1.0 3.1 65 79
r 0.28698 0 2 tcp 1040 ------- 0 0.0 3.0 8 84
+ 0.28698 2 3 tcp 1040 ------- 0 0.0 3.0 8 84
- 0.28698 2 3 cbr 210 ------- 0 1.0 3.1 70 86
r 0.28709 1 2 cbr 210 ------- 0 1.0 3.1 71 89
+ 0.28709 2 3 cbr 210 ------- 0 1.0 3.1 71 89
- 0.28778 0 2 tcp 1040 ------- 0 0.0 3.0 14 94
- 0.28782 2 3 tcp 1040 ------- 0 0.0 3.0 8 84
+ 0.28875 1 2 cbr 210 ------- 0 1.0 3.1 77 99
- 0.28875 1 2 cbr 210 ------- 0 1.0 3.1 77 99
r 0.28918 2 3 cbr 210 ------- 0 1.0 3.1 66 80
r 0.29084 1 2 cbr 210 ------- 0 1.0 3.1 72 92
+ 0.29084 2 3 cbr 210 ------- 0 1.0 3.1 72 92
r 0.29114 0 2 tcp 1040 ------- 0 0.0 3.0 9 87
+ 0.29114 2 3 tcp 1040 ------- 0 0.0 3.0 9 87
- 0.29198 2 3 cbr 210 ------- 0 1.0 3.1 71 89
+ 0.2925 1 2 cbr 210 ------- 0 1.0 3.1 78 100
- 0.2925 1 2 cbr 210 ------- 0 1.0 3.1 78 100
- 0.29282 2 3 cbr 210 ------- 0 1.0 3.1 72 92
r 0.29293 2 3 cbr 210 ------- 0 1.0 3.1 67 81
- 0.29366 2 3 tcp 1040 ------- 0 0.0 3.0 9 87
r 0.29459 1 2 cbr 210 ------- 0 1.0 3.1 73 95
+ 0.29459 2 3 cbr 210 ------- 0 1.0 3.1 73 95
r 0.2953 0 2 tcp 1040 ------- 0 0.0 3.0 10 88
+ 0.2953 2 3 tcp 1040 ------- 0 0.0 3.0 10 88
+ 0.29625 1 2 cbr 210 ------- 0 1.0 3.1 79 101
- 0.29625 1 2 cbr 210 ------- 0 1.0 3.1 79 101
r 0.29668 2 3 cbr 210 ------- 0 1.0 3.1 68 82
- 0.29782 2 3 cbr 210 ------- 0 1.0 3.1 73 95
r 0.29834 1 2 cbr 210 ------- 0 1.0 3.1 74 96
+ 0.29834 2 3 cbr 210 ------- 0 1.0 3.1 74 96
- 0.29866 2 3 tcp 1040 ------- 0 0.0 3.0 10 88
r 0.29946 0 2 tcp 1040 ------- 0 0.0 3.0 11 90
+ 0.29946 2 3 tcp 1040 ------- 0 0.0 3.0 11 90
+ 0.3 1 2 cbr 210 ------- 0 1.0 3.1 80 102
- 0.3 1 2 cbr 210 ------- 0 1.0 3.1 80 102
r 0.30043 2 3 cbr 210 ------- 0 1.0 3.1 69 85
r 0.30209 1 2 cbr 210 ------- 0 1.0 3.1 75 97
+ 0.30209 2 3 cbr 210 ------- 0 1.0 3.1 75 97
- 0.30282 2 3 cbr 210 ------- 0 1.0 3.1 74 96
r 0.30362 0 2 tcp 1040 ------- 0 0.0 3.0 12 91
+ 0.30362 2 3 tcp 1040 ------- 0 0.0 3.0 12 91
- 0.30366 2 3 tcp 1040 ------- 0 0.0 3.0 11 90
+ 0.30375 1 2 cbr 210 ------- 0 1.0 3.1 81 103
- 0.30375 1 2 cbr 210 ------- 0 1.0 3.1 81 103
r 0.30584 1 2 cbr 210 ------- 0 1.0 3.1 76 98
+ 0.30584 2 3 cbr 210 ------- 0 1.0 3.1 76 98
r 0.30698 2 3 tcp 1040 ------- 0 0.0 3.0 7 83
+ 0.30698 3 2 ack 40 ------- 0 3.0 0.0 7 104
- 0.30698 3 2 ack 40 ------- 0 3.0 0.0 7 104
+ 0.3075 1 2 cbr 210 ------- 0 1.0 3.1 82 105
- 0.3075 1 2 cbr 210 ------- 0 1.0 3.1 82 105
r 0.30778 0 2 tcp 1040 ------- 0 0.0 3.0 13 93
+ 0.30778 2 3 tcp 1040 ------- 0 0.0 3.0 13 93
r 0.30782 2 3 cbr 210 ------- 0 1.0 3.1 70 86
- 0.30782 2 3 cbr 210 ------- 0 1.0 3.1 75 97
- 0.30866 2 3 tcp 1040 ------- 0 0.0 3.0 12 91
r 0.30959 1 2 cbr 210 ------- 0 1.0 3.1 77 99
+ 0.30959 2 3 cbr 210 ------- 0 1.0 3.1 77 99
+ 0.31125 1 2 cbr 210 ------- 0 1.0 3.1 83 106
- 0.31125 1 2 cbr 210 ------- 0 1.0 3.1 83 106
r 0.31194 0 2 tcp 1040 ------- 0 0.0 3.0 14 94
+ 0.31194 2 3 tcp 1040 ------- 0 0.0 3.0 14 94
r 0.31198 2 3 tcp 1040 ------- 0 0.0 3.0 8 84
+ 0.31198 3 2 ack 40 ------- 0 3.0 0.0 8 107
- 0.31198 3 2 ack 40 ------- 0 3.0 0.0 8 107
r 0.31282 2 3 cbr 210 ------- 0 1.0 3.1 71 89
- 0.31282 2 3 cbr 210 ------- 0 1.0 3.1 76 98
r 0.31334 1 2 cbr 210 ------- 0 1.0 3.1 78 100
+ 0.31334 2 3 cbr 210 ------- 0 1.0 3.1 78 100
r 0.31366 2 3 cbr 210 ------- 0 1.0 3.1 72 92
- 0.31366 2 3 tcp 1040 ------- 0 0.0 3.0 13 93
+ 0.315 1 2 cbr 210 ------- 0 1.0 3.1 84 108
- 0.315 1 2 cbr 210 ------- 0 1.0 3.1 84 108
r 0.31709 1 2 cbr 210 ------- 0 1.0 3.1 79 101
+ 0.31709 2 3 cbr 210 ------- 0 1.0 3.1 79 101
r 0.31782 2 3 tcp 1040 ------- 0 0.0 3.0 9 87
+ 0.31782 3 2 ack 40 ------- 0 3.0 0.0 9 109
- 0.31782 3 2 ack 40 ------- 0 3.0 0.0 9 109
- 0.31782 2 3 cbr 210 ------- 0 1.0 3.1 77 99
r 0.31866 2 3 cbr 210 ------- 0 1.0 3.1 73 95
- 0.31866 2 3 tcp 1040 ------- 0 0.0 3.0 14 94
+ 0.31875 1 2 cbr 210 ------- 0 1.0 3.1 85 110
- 0.31875 1 2 cbr 210 ------- 0 1.0 3.1 85 110
r 0.32084 1 2 cbr 210 ------- 0 1.0 3.1 80 102
+ 0.32084 2 3 cbr 210 ------- 0 1.0 3.1 80 102
+ 0.3225 1 2 cbr 210 ------- 0 1.0 3.1 86 111
- 0.3225 1 2 cbr 210 ------- 0 1.0 3.1 86 111
r 0.32282 2 3 tcp 1040 ------- 0 0.0 3.0 10 88
+ 0.32282 3 2 ack 40 ------- 0 3.0 0.0 10 112
- 0.32282 3 2 ack 40 ------- 0 3.0 0.0 10 112
- 0.32282 2 3 cbr 210 ------- 0 1.0 3.1 78 100
r 0.32366 2 3 cbr 210 ------- 0 1.0 3.1 74 96
- 0.32366 2 3 cbr 210 ------- 0 1.0 3.1 79 101
- 0.3245 2 3 cbr 210 ------- 0 1.0 3.1 80 102
r 0.32459 1 2 cbr 210 ------- 0 1.0 3.1 81 103
+ 0.32459 2 3 cbr 210 ------- 0 1.0 3.1 81 103
- 0.32534 2 3 cbr 210 ------- 0 1.0 3.1 81 103
+ 0.32625 1 2 cbr 210 ------- 0 1.0 3.1 87 113
- 0.32625 1 2 cbr 210 ------- 0 1.0 3.1 87 113
r 0.32714 3 2 ack 40 ------- 0 3.0 0.0 7 104
+ 0.32714 2 0 ack 40 ------- 0 3.0 0.0 7 104
- 0.32714 2 0 ack 40 ------- 0 3.0 0.0 7 104
r 0.32782 2 3 tcp 1040 ------- 0 0.0 3.0 11 90
+ 0.32782 3 2 ack 40 ------- 0 3.0 0.0 11 114
- 0.32782 3 2 ack 40 ------- 0 3.0 0.0 11 114
r 0.32834 1 2 cbr 210 ------- 0 1.0 3.1 82 105
+ 0.32834 2 3 cbr 210 ------- 0 1.0 3.1 82 105
- 0.32834 2 3 cbr 210 ------- 0 1.0 3.1 82 105
r 0.32866 2 3 cbr 210 ------- 0 1.0 3.1 75 97
+ 0.33 1 2 cbr 210 ------- 0 1.0 3.1 88 115
- 0.33 1 2 cbr 210 ------- 0 1.0 3.1 88 115
r 0.33209 1 2 cbr 210 ------- 0 1.0 3.1 83 106
+ 0.33209 2 3 cbr 210 ------- 0 1.0 3.1 83 106
- 0.33209 2 3 cbr 210 ------- 0 1.0 3.1 83 106
r 0.33214 3 2 ack 40 ------- 0 3.0 0.0 8 107
+ 0.33214 2 0 ack 40 ------- 0 3.0 0.0 8 107
- 0.33214 2 0 ack 40 ------- 0 3.0 0.0 8 107
r 0.33282 2 3 tcp 1040 ------- 0 0.0 3.0 12 91
+ 0.33282 3 2 ack 40 ------- 0 3.0 0.0 12 116
- 0.33282 3 2 ack 40 ------- 0 3.0 0.0 12 116
r 0.33366 2 3 cbr 210 ------- 0 1.0 3.1 76 98
+ 0.33375 1 2 cbr 210 ------- 0 1.0 3.1 89 117
- 0.33375 1 2 cbr 210 ------- 0 1.0 3.1 89 117
r 0.33584 1 2 cbr 210 ------- 0 1.0 3.1 84 108
+ 0.33584 2 3 cbr 210 ------- 0 1.0 3.1 84 108
- 0.33584 2 3 cbr 210 ------- 0 1.0 3.1 84 108